LAMMPS (28 Oct 2012)
Scanning data file ...
Reading data file ...
  orthogonal box = (0 0 0) to (100 100 100)
  2 by 2 by 2 MPI processor grid
  512 atoms
Finding 1-2 1-3 1-4 neighbors ...
  0 = max # of 1-2 neighbors
  0 = max # of 1-3 neighbors
  0 = max # of 1-4 neighbors
  1 = max # of special neighbors
WARNING: Resetting reneighboring criteria during minimization (min.cpp:173)
Setting up minimization ...
Memory usage per processor = 4.05499 Mbytes
Step Temp E_pair E_mol TotEng Press 
       0       380.15    1409.7233            0    1988.7655     438.9858 
     701       380.15   -217.27527            0    361.76691    26.240902 
Loop time of 0.0556003 on 8 procs for 701 steps with 512 atoms

Minimization stats:
  Stopping criterion = energy tolerance
  Energy initial, next-to-last, final = 
         1409.72334813     -217.256630745     -217.275265106
  Force two-norm initial, final = 5034.49 0.337455
  Force max component initial, final = 2457.89 0.147661
  Final line search alpha, max atom move = 0.254892 0.0376377
  Iterations, force evaluations = 701 710

Pair  time (%) = 0.008926 (16.0539)
Bond  time (%) = 6.00815e-05 (0.10806)
Neigh time (%) = 0.00313962 (5.64675)
Comm  time (%) = 0.0219029 (39.3935)
Outpt time (%) = 0 (0)
Other time (%) = 0.0215717 (38.7978)

Nlocal:    64 ave 74 max 52 min
Histogram: 1 0 0 1 1 2 0 2 0 1
Nghost:    235.125 ave 266 max 224 min
Histogram: 4 0 2 0 0 1 0 0 0 1
Neighs:    316.25 ave 371 max 226 min
Histogram: 1 0 0 1 1 1 0 1 0 3

Total # of neighbors = 2530
Ave neighs/atom = 4.94141
Ave special neighs/atom = 0
Neighbor list builds = 60
Dangerous builds = 0
Setting up run ...
Memory usage per processor = 3.36354 Mbytes
Step Temp E_pair E_mol TotEng Press Volume 
     701       380.15   -217.27527            0    361.76691    26.240902      1000000 
 5000701    372.85602   -456.37521            0    111.55682    669.68806    52724.089 
Loop time of 1557.67 on 8 procs for 5000000 steps with 512 atoms

Pair  time (%) = 872.451 (56.01)
Bond  time (%) = 0.459203 (0.0294801)
Neigh time (%) = 34.7434 (2.23047)
Comm  time (%) = 486.384 (31.2251)
Outpt time (%) = 4.39584e-05 (2.82206e-06)
Other time (%) = 163.632 (10.5049)

Nlocal:    64 ave 70 max 56 min
Histogram: 2 0 1 0 0 1 0 1 0 3
Nghost:    1355.38 ave 1388 max 1324 min
Histogram: 1 1 0 0 2 1 1 1 0 1
Neighs:    6285 ave 6895 max 5428 min
Histogram: 2 1 0 0 0 0 1 0 1 3

Total # of neighbors = 50280
Ave neighs/atom = 98.2031
Ave special neighs/atom = 0
Neighbor list builds = 90110
Dangerous builds = 13
Setting up run ...
Memory usage per processor = 3.9681 Mbytes
Step Press Volume Temp PotEng KinEng TotEng Enthalpy E_vdwl E_coul E_tail E_long E_bond E_angle E_dihed E_impro E_mol 
10000000    669.68806    52724.089    372.85602   -456.37521    567.93203    111.55682    626.49789   -456.37521            0   -9.9326428            0            0            0            0            0            0 
10001000    681.57921    53134.157    370.99411   -441.14637    565.09599    123.94961    652.11024   -441.14637            0   -9.8559867            0            0            0            0            0            0 
10002000    755.23083    53356.256    376.08543   -430.25977    572.85104    142.59127    730.27132   -430.25977            0   -9.8149606            0            0            0            0            0            0 
10003000    588.06355    53183.158    345.75063   -452.87507    526.64527    73.770201    529.88512   -452.87507            0   -9.8469057            0            0            0            0            0            0 
10004000     668.1491    52520.454    380.34507   -456.26125     579.3393    123.07805    634.85149   -456.26125            0   -9.9711542            0            0            0            0            0            0 
10005000    716.11469    53053.082    413.27217   -448.64509    629.49366    180.84857    734.92425   -448.64509            0   -9.8710486            0            0            0            0            0            0 
10006000    664.61524    52742.642    368.87103    -450.2954    561.86212    111.56672    622.78699    -450.2954            0   -9.9291488            0            0            0            0            0            0 
10007000    676.95063    51640.493    361.33381   -467.16818    550.38147    83.213293     593.0408   -467.16818            0   -10.141064            0            0            0            0            0            0 
10008000    650.67786    51996.203    405.44892   -465.37964    617.57734    152.19771    645.61407   -465.37964            0   -10.071688            0            0            0            0            0            0 
10009000    718.11871    54476.214    395.90389   -435.20194    603.03841    167.83647    738.36721   -435.20194            0   -9.6131781            0            0            0            0            0            0 
10010000    702.31601    52389.785    357.27512   -451.25446     544.1993    92.944843    629.55029   -451.25446            0    -9.996024            0            0            0            0            0            0 
10011000    613.48876    54993.141    374.53144   -441.76564    570.48402    128.71837    620.74774   -441.76564            0   -9.5228157            0            0            0            0            0            0 
10012000     662.5214    52599.877    392.29302   -461.37677    597.53835    136.16158    644.39185   -461.37677            0   -9.9560983            0            0            0            0            0            0 
10013000     787.0085    53867.199    365.81584   -425.63207    557.20847    131.57641    749.84858   -425.63207            0   -9.7218634            0            0            0            0            0            0 
10014000     795.8888    50655.671    383.86852   -462.79349     584.7062    121.91271    709.88431   -462.79349            0   -10.338222            0            0            0            0            0            0 
10015000    696.09287    52586.266     377.3271   -452.36801    574.74235    122.37434    656.21962   -452.36801            0   -9.9586753            0            0            0            0            0            0 
10016000    604.46711    54419.362    378.61745   -443.95006     576.7078    132.75774    612.49341   -443.95006            0    -9.623221            0            0            0            0            0            0 
10017000    682.76369    55741.164    413.59572   -417.62248    629.98649    212.36401    767.40153   -417.62248            0   -9.3950236            0            0            0            0            0            0 
10018000    801.70677    52063.487    367.80181   -451.58502    560.23349    108.64847    717.37845   -451.58502            0   -10.058672            0            0            0            0            0            0 
10019000    732.63017    51156.382    363.61577   -465.03381    553.85734     88.82353    635.41205   -465.03381            0   -10.237033            0            0            0            0            0            0 
10020000    633.71496    54926.472    378.13329   -439.32411    575.97033    136.64622    644.28122   -439.32411            0   -9.5343743            0            0            0            0            0            0 
10021000     692.3109    52617.812    368.20685   -457.52139    560.85044    103.32905    634.59239   -457.52139            0   -9.9527047            0            0            0            0            0            0 
10022000    692.62535    52093.553    377.19647   -462.87245    574.54338    111.67093     637.8799   -462.87245            0   -10.052867            0            0            0            0            0            0 
10023000    767.85999    55000.562    376.06766   -410.40543    572.82398    162.41855    778.33961   -410.40543            0   -9.5215308            0            0            0            0            0            0 
10024000    691.63258    52785.634    368.17006   -453.72796     560.7944    107.06644    639.50203   -453.72796            0    -9.921062            0            0            0            0            0            0 
10025000    631.75184    54690.427    367.91618   -435.04826    560.40769    125.35943    629.24708   -435.04826            0   -9.5755249            0            0            0            0            0            0 
10026000    727.04461     53177.66    377.18229   -446.94948    574.52178     127.5723    691.42566   -446.94948            0   -9.8479238            0            0            0            0            0            0 
10027000    668.73804    53458.851    384.02269   -443.80663    584.94103     141.1344      662.511   -443.80663            0   -9.7961243            0            0            0            0            0            0 
10028000    750.82661    51656.208    398.55663   -462.47777    607.07904    144.60127     710.2386   -462.47777            0   -10.137979            0            0            0            0            0            0 
10029000    755.16054    54387.763    386.38464   -429.94195    588.53874    158.59679    757.58238   -429.94195            0    -9.628812            0            0            0            0            0            0 
10030000    862.57652    50814.761    353.19341   -457.52328    537.98206    80.458782      719.698   -457.52328            0   -10.305855            0            0            0            0            0            0 
10031000    709.49575    52210.418     403.9134   -456.11382    615.23844    159.12462     699.3598   -456.11382            0   -10.030365            0            0            0            0            0            0 
10032000    645.40655    52857.582    370.17435   -458.43231    563.84733    105.41502     602.9419   -458.43231            0   -9.9075576            0            0            0            0            0            0 
10033000    762.57094    53280.274    369.13477   -440.18687    562.26384    122.07698    714.62368   -440.18687            0   -9.8289575            0            0            0            0            0            0 
10034000     676.6106    54668.771    388.33984   -427.64793    591.51689    163.86896    703.32244   -427.64793            0    -9.579318            0            0            0            0            0            0 
10035000    782.21583    53207.635    387.66716   -437.57821    590.49227    152.91406    759.89695   -437.57821            0   -9.8423759            0            0            0            0            0            0 
10036000    607.78023    54633.873    389.38249   -444.03628    593.10504    149.06876    633.33529   -444.03628            0   -9.5854369            0            0            0            0            0            0 
10037000    790.90629    50497.837    376.26593   -470.88174    573.12599    102.24425    684.71443   -470.88174            0   -10.370534            0            0            0            0            0            0 
10038000    776.34305     53318.53     385.9194   -439.85389     587.8301    147.97621    751.65751   -439.85389            0   -9.8219052            0            0            0            0            0            0 
10039000     624.4803    53094.455    380.22574   -452.73775    579.15755     126.4198    609.97249   -452.73775            0   -9.8633566            0            0            0            0            0            0 
10040000    681.25794    54258.604    372.51923   -437.14084    567.41904    130.27819    669.36175   -437.14084            0   -9.6517328            0            0            0            0            0            0 
10041000     748.7431    54495.731    394.73228   -433.99378    601.25381    167.26003    762.33435   -433.99378            0   -9.6097352            0            0            0            0            0            0 
10042000    660.13482    53194.481    395.89744   -459.77439    603.02858    143.25419    655.37817   -459.77439            0   -9.8448097            0            0            0            0            0            0 
10043000    780.14038    52710.471    393.70092   -440.31927    599.68285    159.36358    759.07946   -440.31927            0    -9.935209            0            0            0            0            0            0 
10044000    689.04001    56180.098    376.90089   -413.37791    574.09315    160.71524    725.26577   -413.37791            0   -9.3216204            0            0            0            0            0            0 
10045000     676.1704    53544.582    401.22647   -450.81681    611.14572    160.32891    688.34551   -450.81681            0   -9.7804395            0            0            0            0            0            0 
10046000    584.75683    56490.545    367.74368   -430.80847    560.14494    129.33647    611.09227   -430.80847            0   -9.2703929            0            0            0            0            0            0 
10047000    821.04649    51242.172    365.60992   -451.42791    556.89481     105.4669    719.04687   -451.42791            0   -10.219894            0            0            0            0            0            0 
10048000    610.81569    54698.571    364.09877   -438.74026    554.59303    115.85277    603.11422   -438.74026            0   -9.5740993            0            0            0            0            0            0 
10049000    680.94992    52878.664    388.66972   -453.65343    592.01936    138.36593    663.50163   -453.65343            0   -9.9036077            0            0            0            0            0            0 
10050000    713.32844    53836.164    371.43305   -432.07537    565.76457     133.6892    693.75562   -432.07537            0   -9.7274677            0            0            0            0            0            0 
10051000    815.91406    56547.818    407.63425   -404.29692    620.90602     216.6091    889.48683   -404.29692            0   -9.2610036            0            0            0            0            0            0 
10052000     772.4975    50837.439    377.04867    -471.5599    574.31825    102.75835    675.49718    -471.5599            0   -10.301257            0            0            0            0            0            0 
10053000    651.23798    54266.345    369.23047   -444.09762    562.40961    118.31199    633.71409   -444.09762            0    -9.650356            0            0            0            0            0            0 
10054000    815.10194    52591.537    395.09779   -446.51147    601.81055    155.29908    780.47707   -446.51147            0   -9.9576771            0            0            0            0            0            0 
10055000    716.19477    54370.556    377.13401   -436.11252    574.44823    138.33571    706.23432   -436.11252            0   -9.6318593            0            0            0            0            0            0 
10056000    726.97996    54582.683    417.74652   -429.80666    636.30896     206.5023    785.20193   -429.80666            0   -9.5944266            0            0            0            0            0            0 
10057000    735.15291    50290.232    346.69989   -477.39962    528.09116    50.691546    589.87581   -477.39962            0   -10.413345            0            0            0            0            0            0 
10058000    597.67473    55680.652    396.07553   -427.48976    603.29984    175.81009    661.14899   -427.48976            0   -9.4052336            0            0            0            0            0            0 
10059000    666.16747    52698.935    395.62619   -458.49641    602.61542    144.11901    656.10862   -458.49641            0   -9.9373839            0            0            0            0            0            0 
10060000    615.98519    57231.598    373.29658   -419.68351    568.60308    148.91957    663.06033   -419.68351            0   -9.1503568            0            0            0            0            0            0 
10061000    687.04523    52654.606    368.08876   -450.53969    560.67056    110.13088    637.72213   -450.53969            0   -9.9457499            0            0            0            0            0            0 
10062000    675.33914      53123.7    397.32538   -450.35171     605.2036    154.85189    678.07405   -450.35171            0   -9.8579268            0            0            0            0            0            0 
10063000    653.93415    53388.228    399.57627    -451.5913    608.63215    157.04085    666.20217    -451.5913            0   -9.8090828            0            0            0            0            0            0 
10064000    535.30006    56310.575    397.74227   -431.87851    605.83861     173.9601    613.56563   -431.87851            0   -9.3000213            0            0            0            0            0            0 
10065000    517.88982    56134.427    373.60896   -438.98652     569.0789    130.09238    554.06964   -438.98652            0   -9.3292044            0            0            0            0            0            0 
10066000    759.89237    51961.013    375.24272   -458.97102    571.56743    112.59641    688.44139   -458.97102            0   -10.078509            0            0            0            0            0            0 
10067000    687.37086    50903.541    410.09194    -481.1037    624.64956    143.54586    653.83345    -481.1037            0    -10.28788            0            0            0            0            0            0 
10068000    717.00917    55617.207    393.45451   -414.61862    599.30753    184.68891    766.26933   -414.61862            0   -9.4159626            0            0            0            0            0            0 
10069000    707.18419    51985.577    389.01334   -456.47906    592.54275    136.06369    672.21985   -456.47906            0   -10.073747            0            0            0            0            0            0 
10070000    675.92353    53020.557    388.27722   -453.01057    591.42151    138.41094    661.06911   -453.01057            0   -9.8771038            0            0            0            0            0            0 
10071000    669.55888     53651.42    368.51347   -445.97237    561.31749    115.34511    639.24208   -445.97237            0   -9.7609633            0            0            0            0            0            0 
10072000    679.43634    52316.088    385.51529   -459.94996    587.21455    127.26459    645.65854   -459.94996            0   -10.010105            0            0            0            0            0            0 
10073000    710.66149     51438.76    393.73086    -470.7301    599.72846    128.99836     662.1235    -470.7301            0   -10.180835            0            0            0            0            0            0 
10074000    719.36085    53337.274    383.24647   -448.70772     583.7587    135.05098     694.6198   -448.70772            0   -9.8184535            0            0            0            0            0            0 
10075000    674.58974    53267.546    395.01174   -458.79317    601.67948    142.88631    666.94305   -458.79317            0   -9.8313061            0            0            0            0            0            0 
10076000    729.36766    53626.191    379.10878   -440.32886    577.45619    137.12733    707.55337   -440.32886            0   -9.7655554            0            0            0            0            0            0 
10077000    666.07925    52690.001    381.87198   -454.00528    581.66508    127.65981    639.49483   -454.00528            0   -9.9390689            0            0            0            0            0            0 
10078000    594.96426     53971.67    347.96506   -450.13821    530.01826    79.880054    548.18918   -450.13821            0   -9.7030451            0            0            0            0            0            0 
10079000    710.67681    52950.616    389.52763   -449.74907    593.32613    143.57706    692.38332   -449.74907            0   -9.8901502            0            0            0            0            0            0 
10080000    788.95309    53256.844    381.65008   -430.52359    581.32709    150.80351    763.58057   -430.52359            0   -9.8332816            0            0            0            0            0            0 
10081000    693.16252    54336.203    375.23404   -436.69203    571.55421    134.86218    684.15036   -436.69203            0   -9.6379488            0            0            0            0            0            0 
10082000    920.52744    50580.087    386.87599   -450.18538    589.28717    139.10178    818.13685   -450.18538            0    -10.35367            0            0            0            0            0            0 
10083000    715.21268    53672.314    386.60209   -442.98493    588.86996    145.88504     705.7218   -442.98493            0   -9.7571635            0            0            0            0            0            0 
10084000    672.99201    54321.738    380.68207   -436.27434    579.85262    143.57828     676.7406   -436.27434            0   -9.6405153            0            0            0            0            0            0 
10085000    670.88329    53591.749    371.69778   -439.78389     566.1678    126.38391    650.73334   -439.78389            0   -9.7718316            0            0            0            0            0            0 
10086000    596.98868    55574.235    408.48896   -437.32151    622.20791     184.8864    668.74167   -437.32151            0   -9.4232434            0            0            0            0            0            0 
10087000    833.05902    51562.136    381.61122    -450.5693    581.26789    130.69859    757.14302    -450.5693            0   -10.156475            0            0            0            0            0            0 
10088000    839.80106    52648.911    397.21286   -440.52289    605.03222    164.50933    809.33408   -440.52289            0   -9.9468258            0            0            0            0            0            0 
10089000    732.90259    50928.654     376.1591   -471.09559    572.96326    101.86767    646.22534   -471.09559            0   -10.282807            0            0            0            0            0            0 
10090000    619.50996    53684.905    372.02341   -450.68297    566.66379    115.98083    601.01952   -450.68297            0   -9.7548751            0            0            0            0            0            0 
10091000    554.13995    54686.594    381.05179   -447.14168    580.41578     133.2741    575.22725   -447.14168            0   -9.5761961            0            0            0            0            0            0 
10092000    726.25933    54988.305    365.19223   -422.35394     556.2586    133.90466    716.32689   -422.35394            0   -9.5236531            0            0            0            0            0            0 
10093000    760.52163    54029.545    360.24671   -425.42641    548.72561    123.29919    722.56399   -425.42641            0   -9.6926515            0            0            0            0            0            0 
10094000    680.21143    52557.069    371.28117   -455.54724    565.53323    109.98599    631.36189   -455.54724            0   -9.9642075            0            0            0            0            0            0 
10095000    707.30981    52612.907    348.60576   -453.44889    530.99418    77.545286    620.26784   -453.44889            0   -9.9536325            0            0            0            0            0            0 
10096000    669.32106    53222.956    353.79095   -449.96073    538.89223    88.931494    608.45998   -449.96073            0   -9.8395427            0            0            0            0            0            0 
10097000    614.62049    53043.339    359.90494   -451.00873    548.20503    97.196299    572.65607   -451.00873            0   -9.8728617            0            0            0            0            0            0 
10098000     733.8935    50802.243      376.427   -473.83583    573.37133    99.535496    643.27617   -473.83583            0   -10.308394            0            0            0            0            0            0 
10099000    518.15811    56490.469    356.31928   -437.12795    542.74336    105.61541    532.50285   -437.12795            0   -9.2704053            0            0            0            0            0            0 
10100000    802.66651    52641.776    357.91096   -439.19462     545.1678    105.97318    722.20137   -439.19462            0    -9.948174            0            0            0            0            0            0 
10101000    673.20487    54296.768    359.19265   -439.95868    547.12007    107.16139    640.24719   -439.95868            0   -9.6449488            0            0            0            0            0            0 
10102000    788.68833    52398.874     407.8443   -451.14825    621.22597    170.07771    772.78058   -451.14825            0   -9.9942901            0            0            0            0            0            0 
10103000    744.36201    54109.817    390.95412   -438.39546    595.49894    157.10348    744.50647   -438.39546            0   -9.6782723            0            0            0            0            0            0 
10104000    846.96591    51850.246     419.1658   -454.61651    638.47081     183.8543    824.31523   -454.61651            0    -10.10004            0            0            0            0            0            0 
10105000    686.73361    52437.341    392.97536   -465.28342    598.57769    133.29427    658.47025   -465.28342            0   -9.9869585            0            0            0            0            0            0 
10106000    553.98892    54543.563    357.85358   -443.14599     545.0804    101.93441    542.61149   -443.14599            0    -9.601308            0            0            0            0            0            0 
10107000    653.30305     51422.17    384.69648   -469.41491    585.96734    116.55243    606.49026   -469.41491            0    -10.18412            0            0            0            0            0            0 
10108000    693.04088      52717.3    387.48209   -459.04148    590.21037    131.16889    663.99795   -459.04148            0    -9.933922            0            0            0            0            0            0 
10109000    776.83425    54767.714    384.76058   -418.91819    586.06499     167.1468    787.62834   -418.91819            0   -9.5620121            0            0            0            0            0            0 
10110000    691.06721    53659.833    371.56223   -443.14246    565.96133    122.81887    663.62984   -443.14246            0   -9.7594329            0            0            0            0            0            0 
10111000    723.77436    53703.269    371.66035   -432.77268    566.11079    133.33811    700.20332   -432.77268            0   -9.7515395            0            0            0            0            0            0 
10112000    724.26139    54664.175    407.49785   -429.37566    620.69826     191.3226    768.71894   -429.37566            0   -9.5801235            0            0            0            0            0            0 
10113000    908.96161    50628.897    378.45163   -450.07245    576.45522    126.38277    797.53324   -450.07245            0   -10.343689            0            0            0            0            0            0 
10114000    613.64957    55674.957    365.03485   -435.73743    556.01887    120.28144    618.54165   -435.73743            0   -9.4061958            0            0            0            0            0            0 
10115000    801.69689    53811.301    390.90051   -428.30323    595.41729    167.11406    796.27185   -428.30323            0   -9.7319621            0            0            0            0            0            0 
10116000    711.91841    54317.073    406.78827   -440.53632    619.61743    179.08111    743.03354   -440.53632            0   -9.6413433            0            0            0            0            0            0 
10117000    822.81957    51532.961    406.01403   -467.08458     618.4381    151.35353      769.748   -467.08458            0   -10.162225            0            0            0            0            0            0 
10118000      643.993    56065.091    404.35633   -426.94301     615.9131    188.97009    715.53215   -426.94301            0    -9.340742            0            0            0            0            0            0 
10119000    780.43657    52529.886    358.02293   -443.22472    545.33835    102.11363    700.00181   -443.22472            0   -9.9693637            0            0            0            0            0            0 
10120000    672.20851     55997.56    369.66184   -414.00029    563.06667    149.06638    698.03687   -414.00029            0   -9.3520065            0            0            0            0            0            0 
10121000    788.98766    50825.441    358.60989   -462.69246     546.2324    83.539941    668.36672   -462.69246            0   -10.303689            0            0            0            0            0            0 
10122000    627.10039    55912.312    395.01617   -431.80154    601.68624     169.8847    681.23723   -431.80154            0   -9.3662653            0            0            0            0            0            0 
10123000    818.07289    52060.428    386.03319   -444.07933    588.00342    143.92408    765.04424   -444.07933            0   -10.059263            0            0            0            0            0            0 
10124000    560.86806    54037.503     383.3347   -456.61143    583.89308    127.28166    569.29143   -456.61143            0    -9.691224            0            0            0            0            0            0 
10125000    709.05021    53206.942    374.73105   -449.22252    570.78807    121.56554     671.7663   -449.22252            0    -9.842504            0            0            0            0            0            0 
10126000    645.40207     55329.58    365.60504   -433.14185    556.88738    123.74553    644.53671   -433.14185            0   -9.4649108            0            0            0            0            0            0 
10127000    729.12186    54539.043    379.09933   -433.79998     577.4418    143.64182    723.58243   -433.79998            0   -9.6021037            0            0            0            0            0            0 
10128000    567.51728    50788.779    374.07384   -492.13941      569.787    77.647587    498.00891   -492.13941            0   -10.311127            0            0            0            0            0            0 
10129000    593.44797    53826.264    409.08799   -459.82341    623.12035    163.29693     629.1541   -459.82341            0   -9.7292568            0            0            0            0            0            0 
10130000    676.25738    53302.979     360.8512   -444.52211    549.64637    105.12426    630.82596   -444.52211            0   -9.8247708            0            0            0            0            0            0 
10131000    620.63627    56385.147    390.20408   -422.30468    594.35649    172.05181    682.41313   -422.30468            0   -9.2877215            0            0            0            0            0            0 
10132000    749.53212    51955.294    402.56415   -457.28806    613.18328    155.89522     723.8267   -457.28806            0   -10.079618            0            0            0            0            0            0 
10133000    625.30586    53755.701     374.5001   -449.82127    570.43628    120.61502    610.83715   -449.82127            0    -9.742028            0            0            0            0            0            0 
10134000    705.04954    51395.854    382.14561   -476.24305    582.08187    105.83882     634.3128   -476.24305            0   -10.189334            0            0            0            0            0            0 
10135000    717.81361    53882.617    402.10793   -448.39546    612.48836    164.09291    728.16714   -448.39546            0   -9.7190814            0            0            0            0            0            0 
10136000    655.04445    55999.775    387.10247     -425.045    589.63214    164.58713    699.56147     -425.045            0   -9.3516365            0            0            0            0            0            0 
10137000    729.36403    52092.135    380.07707   -450.88071    578.93109    128.05038    682.15578   -450.88071            0    -10.05314            0            0            0            0            0            0 
10138000    541.24991     53619.51    357.13089    -457.3696    543.97961    86.610015    509.85962    -457.3696            0   -9.7667724            0            0            0            0            0            0 
10139000    624.67836    53900.016    371.13169   -454.84092    565.30554    110.46462    601.50957   -454.84092            0   -9.7159441            0            0            0            0            0            0 
10140000    708.75368     51888.78    358.37899   -469.70122    545.88071    76.179495    612.52503   -469.70122            0   -10.092539            0            0            0            0            0            0 
10141000     753.7692    54422.724    380.29651   -423.11164    579.26533    156.15369    754.42001   -423.11164            0   -9.6226264            0            0            0            0            0            0 
10142000    723.44926    53639.547    387.46655   -440.77996    590.18669    149.40673      715.345   -440.77996            0    -9.763124            0            0            0            0            0            0 
10143000    654.09814    51564.067    389.38756    -469.8676    593.11276    123.24517    615.13288    -469.8676            0   -10.156095            0            0            0            0            0            0 
10144000    656.45786     53294.56     382.1977   -451.06926    582.16123    131.09197    641.32154   -451.06926            0   -9.8263226            0            0            0            0            0            0 
10145000     755.1278    54791.277    391.19547    -421.9681    595.86656    173.89847    777.30189    -421.9681            0      -9.5579            0            0            0            0            0            0 
10146000    744.55968    52117.646    381.50712   -458.86162    581.10932    122.24771    688.17442   -458.86162            0   -10.048219            0            0            0            0            0            0 
10147000    791.18547    54078.259     389.6415   -423.18223    593.49958    170.31735    794.30628   -423.18223            0   -9.6839203            0            0            0            0            0            0 
10148000    768.61063    53619.757      386.246   -435.79593    588.32756    152.53162    753.57681   -435.79593            0   -9.7667273            0            0            0            0            0            0 
10149000    624.19752    53824.395    392.49316   -444.65977    597.84321    153.18344      643.162   -444.65977            0   -9.7295947            0            0            0            0            0            0 
10150000    615.97254    54777.597    384.63659   -436.37386    585.87612    149.50226    641.58737   -436.37386            0   -9.5602869            0            0            0            0            0            0 
10151000    639.26179    52485.202    365.14077    -461.3422     556.1802       94.838    584.15636    -461.3422            0   -9.9778513            0            0            0            0            0            0 
10152000    637.50729    52075.303     364.3683   -465.92985    555.00359    89.073742    573.23814   -465.92985            0    -10.05639            0            0            0            0            0            0 
10153000    708.47526    53180.482    369.20771   -451.02409    562.37495    111.35086    660.83207   -451.02409            0   -9.8474012            0            0            0            0            0            0 
10154000    668.57716    53305.881    377.37454   -445.86325    574.81461    128.95136    648.71099   -445.86325            0   -9.8242358            0            0            0            0            0            0 
10155000    709.20876    54176.077    379.28734   -437.70082    577.72817    140.02735    700.37497   -437.70082            0   -9.6664353            0            0            0            0            0            0 
10156000    913.93767    52129.053    370.57039   -427.02373    564.45058    137.42685    832.24684   -427.02373            0   -10.046021            0            0            0            0            0            0 
10157000    602.07505    53859.728    395.91198   -451.64927    603.05073    151.40145    624.32471   -451.64927            0   -9.7232119            0            0            0            0            0            0 
10158000    625.28373    54047.252    362.40183   -447.12398    552.00827    104.88429    597.74777   -447.12398            0   -9.6894759            0            0            0            0            0            0 
10159000    609.64766    52114.452    376.53656   -463.16311     573.5382    110.37509    573.72916   -463.16311            0   -10.048835            0            0            0            0            0            0 
10160000     664.7945    54671.766    405.68796   -434.53349    617.94144    183.40796    713.46964   -434.53349            0   -9.5787932            0            0            0            0            0            0 
10161000    719.81714    54072.673    378.58045   -435.40863    576.65145    141.24282    708.88663   -435.40863            0   -9.6849207            0            0            0            0            0            0 
10162000    792.77423     52582.57    407.34014   -437.55408    620.45803    182.90395    790.85305   -437.55408            0   -9.9593753            0            0            0            0            0            0 
10163000    655.08749    54119.889    382.71167   -443.62596     582.9441    139.31814    656.36761   -443.62596            0   -9.6764711            0            0            0            0            0            0 
10164000    708.87506     53045.73    405.16177   -451.34133    617.13996    165.79863    714.19683   -451.34133            0   -9.8724165            0            0            0            0            0            0 
10165000    630.25838    53052.659    367.45741   -455.02031     559.7089    104.68859    592.33123   -455.02031            0   -9.8711272            0            0            0            0            0            0 
10166000    569.31187     52566.36    372.13268   -477.72353    566.83024    89.106707    525.55624   -477.72353            0   -9.9624465            0            0            0            0            0            0 
10167000    694.71406    52645.396    383.94966   -449.65691    584.82979    135.17287     668.5598   -449.65691            0     -9.94749            0            0            0            0            0            0 
10168000    737.02451    55002.458    384.15029   -426.07858     585.1354    159.05682     750.2643   -426.07858            0   -9.5212026            0            0            0            0            0            0 
10169000    742.78551    51291.555    392.82214   -467.09014     598.3443    131.25416    686.88351   -467.09014            0   -10.210054            0            0            0            0            0            0 
10170000    681.61325     53992.98    389.75251   -448.06279    593.66867    145.60588    682.33012   -448.06279            0   -9.6992154            0            0            0            0            0            0 
10171000    708.08176    55463.457    364.16554   -422.78372    554.69474    131.91102    704.66251   -422.78372            0   -9.4420646            0            0            0            0            0            0 
10172000    716.82826    51924.489    394.84891   -460.76888    601.43147    140.66259    683.49184   -460.76888            0   -10.085598            0            0            0            0            0            0 
10173000    666.94306    53611.729    394.21346    -451.9825    600.46355    148.48105    669.94521    -451.9825            0   -9.7681898            0            0            0            0            0            0 
10174000    682.90418    53889.173     377.3009   -442.50761    574.70244    132.19483    668.90174   -442.50761            0    -9.717899            0            0            0            0            0            0 
10175000     554.7385    58782.192    376.64735   -408.41119    573.70696    165.29577    640.86087   -408.41119            0   -8.9089829            0            0            0            0            0            0 
10176000    894.26643    51688.446    379.80105    -444.2723    578.51065    134.23835    808.35693    -444.2723            0   -10.131656            0            0            0            0            0            0 
10177000    687.35091     52091.49    377.73599   -465.60086    575.36517    109.76431    631.94545   -465.60086            0   -10.053265            0            0            0            0            0            0 
10178000    715.36132    54127.948     385.1027   -434.72741     586.5861     151.8587    716.56534   -434.72741            0   -9.6750305            0            0            0            0            0            0 
10179000    734.04312     53375.65    389.15556   -436.59342    592.75939    156.16597     727.5665   -436.59342            0   -9.8113943            0            0            0            0            0            0 
10180000    615.78293    53772.633    375.84428   -445.28837    572.48374    127.19537    610.10385   -445.28837            0   -9.7389605            0            0            0            0            0            0 
10181000    627.62569    52111.464    395.56499   -475.23552    602.52219    127.28668    604.27733   -475.23552            0   -10.049412            0            0            0            0            0            0 
10182000    705.94669    51900.694    370.51394   -460.09289    564.36459     104.2717    638.61572   -460.09289            0   -10.090222            0            0            0            0            0            0 
10183000    651.63974    53803.311    371.08843   -443.69352    565.23965    121.54613    632.86575   -443.69352            0   -9.7334073            0            0            0            0            0            0 
10184000    685.34742    52551.152    392.26945   -464.81098    597.50245    132.69147    657.94492   -464.81098            0   -9.9653296            0            0            0            0            0            0 
10185000    688.58754    56196.933    382.27893   -420.51314    582.28495    161.77181    726.12069   -420.51314            0   -9.3188278            0            0            0            0            0            0 
10186000    826.15302    53260.508     377.0584   -438.75163    574.33306    135.58144    777.29569   -438.75163            0   -9.8326051            0            0            0            0            0            0 
10187000    852.60898    52311.571    400.04675   -440.17918    609.34879    169.16961    819.63405   -440.17918            0    -10.01097            0            0            0            0            0            0 
10188000    536.86141    56651.459    360.71598   -425.16506     549.4404    124.27534    567.83207   -425.16506            0    -9.244061            0            0            0            0            0            0 
10189000    793.87161    51844.508    389.54502   -451.01908    593.35262    142.33353    742.57904   -451.01908            0   -10.101157            0            0            0            0            0            0 
10190000    617.04648    53923.197    397.62077   -455.67783    605.65355    149.97572    635.23003   -455.67783            0   -9.7117674            0            0            0            0            0            0 
10191000    580.02453    57282.973    387.31679   -430.12829    589.95859    159.83029    644.39056   -430.12829            0   -9.1421503            0            0            0            0            0            0 
10192000    673.94037    54242.969    382.39638   -439.90934    582.46385     142.5545    675.69394   -439.90934            0   -9.6545147            0            0            0            0            0            0 
10193000    594.93609    51905.699    351.92619    -460.1647    536.05184    75.887146    526.24864    -460.1647            0   -10.089249            0            0            0            0            0            0 
10194000    575.29802    54121.962    365.22976   -457.12592    556.31575    99.189837    553.28022   -457.12592            0   -9.6761006            0            0            0            0            0            0 
10195000    666.55769     54654.92    388.96328   -436.92325     592.4665    155.54326    686.84703   -436.92325            0   -9.5817457            0            0            0            0            0            0 
10196000     674.5348    52750.618    380.21467   -452.08741    579.14067    127.05326    645.98209   -452.08741            0   -9.9276476            0            0            0            0            0            0 
10197000    731.48598    52313.871    377.00938    -453.3395    574.25841    120.91891    679.00185    -453.3395            0   -10.010529            0            0            0            0            0            0 
10198000    613.01186    53739.763    361.33234   -447.90502    550.37923     102.4742     582.9157   -447.90502            0   -9.7449172            0            0            0            0            0            0 
10199000    953.29828    49759.001    388.53128   -457.27191    591.80849    134.53658    826.32988   -457.27191            0   -10.524519            0            0            0            0            0            0 
10200000    544.41612    53866.557    383.88478   -459.08923    584.73097    125.64173    553.32877   -459.08923            0   -9.7219791            0            0            0            0            0            0 
10201000     812.1958    52942.484    375.33377   -436.03459    571.70612    135.67154    762.77752   -436.03459            0   -9.8916692            0            0            0            0            0            0 
10202000    620.82772      52211.1    380.75234   -466.15158    579.95966    113.80808    586.53445   -466.15158            0   -10.030234            0            0            0            0            0            0 
10203000    660.40861    52877.667    381.22791   -453.17191    580.68404    127.51213    636.79715   -453.17191            0   -9.9037944            0            0            0            0            0            0 
10204000    589.60311    53498.759    379.50586   -457.08688    578.06103    120.97415    580.99696   -457.08688            0   -9.7888167            0            0            0            0            0            0 
10205000    628.26915    53826.509    392.10322   -449.80599    597.24924    147.44325    640.63732   -449.80599            0   -9.7292125            0            0            0            0            0            0 
10206000     654.6489    54500.634    397.81594   -443.05899    605.95083    162.89184    683.23025   -443.05899            0   -9.6088706            0            0            0            0            0            0 
10207000    678.14454    53706.077    389.05349   -450.36349    592.60391    142.24042    673.39581   -450.36349            0   -9.7510295            0            0            0            0            0            0 
10208000    677.36425    51597.906    362.03841   -471.79285    551.45471    79.661861    589.38018   -471.79285            0   -10.149434            0            0            0            0            0            0 
10209000    623.89573    55760.931     392.4131   -440.02982    597.72125    157.69143    665.05341   -440.02982            0    -9.391693            0            0            0            0            0            0 
10210000    839.15463    52276.546     393.6249   -441.33342    599.56707    158.23364    798.00497   -441.33342            0   -10.017677            0            0            0            0            0            0 
10211000    640.45445    53999.288    417.12353    -447.0346    635.36003    188.32542    692.69882    -447.0346            0   -9.6980825            0            0            0            0            0            0 
10212000     688.8049    53359.606    362.48371   -443.49989    552.13298    108.63309    644.65771   -443.49989            0   -9.8143442            0            0            0            0            0            0 
10213000    553.74898    55776.574    375.87074   -441.54275    572.52403    130.98128    581.42513   -441.54275            0    -9.389059            0            0            0            0            0            0 
10214000    666.75203    54748.341    362.70679   -438.00977    552.47278    114.46301     646.8301   -438.00977            0   -9.5653956            0            0            0            0            0            0 
10215000    917.78757    53006.674    394.35225   -421.18952    600.67496    179.48544    888.97926   -421.18952            0   -9.8796907            0            0            0            0            0            0 
10216000    693.97038    54485.269    382.63507   -436.97339    582.82741    145.85403    697.29105   -436.97339            0   -9.6115804            0            0            0            0            0            0 
10217000    750.62791    53004.667    385.88433   -446.33438    587.77667    141.44229    721.69171   -446.33438            0   -9.8800648            0            0            0            0            0            0 
10218000    711.59939    54824.037    375.32492   -431.02505    571.69265     140.6676    709.62856   -431.02505            0   -9.5521886            0            0            0            0            0            0 
10219000    746.69311    53716.028    378.89058   -437.50251    577.12384    139.62133    724.57561   -437.50251            0   -9.7492232            0            0            0            0            0            0 
10220000    837.11452    52985.555    384.08265   -432.87393    585.03237    152.15844     799.0303   -432.87393            0   -9.8836285            0            0            0            0            0            0 
10221000    608.52535    53054.514    377.86702     -456.295    575.56476    119.26976    590.11361     -456.295            0    -9.870782            0            0            0            0            0            0 
10222000    676.85501    52594.929    357.17243   -454.23226    544.04288     89.81062    608.98758   -454.23226            0   -9.9570349            0            0            0            0            0            0 
10223000    664.18763    54444.156    369.63013   -433.21695    563.01838    129.80143    657.17448   -433.21695            0   -9.6188386            0            0            0            0            0            0 
10224000    748.45888    50517.579    367.86392   -473.11146    560.32809    87.216629    638.64152   -473.11146            0   -10.366481            0            0            0            0            0            0 
10225000    559.09819    55910.466    379.86274   -433.81634    578.60463    144.78829    600.67516   -433.81634            0   -9.3665745            0            0            0            0            0            0 
10226000    691.23577    50910.466    436.05319   -485.52738    664.19358     178.6662    691.89281   -485.52738            0   -10.286481            0            0            0            0            0            0 
10227000    675.99823    53963.123    385.61158   -449.64509    587.36122    137.71613    669.72458   -449.64509            0   -9.7045818            0            0            0            0            0            0 
10228000    560.51456    55267.071    391.71027   -447.79953    596.65071    148.85118     600.6335   -447.79953            0   -9.4756161            0            0            0            0            0            0 
10229000    640.88822    54124.718    369.26856   -442.90962    562.46763      119.558    625.44537   -442.90962            0   -9.6756078            0            0            0            0            0            0 
10230000    749.05214    52431.523    355.36309    -449.2595    541.28691    92.027411    664.79761    -449.2595            0   -9.9880666            0            0            0            0            0            0 
10231000    721.67211    53733.678    370.33204   -440.08965    564.08751    123.99786    689.53662   -440.08965            0   -9.7460209            0            0            0            0            0            0 
10232000    709.56115    52881.928    363.76263   -449.38054    554.08103     104.7005     651.9344   -449.38054            0   -9.9029965            0            0            0            0            0            0 
10233000    709.52788    54682.567    380.12804   -426.69058    579.00873    152.31814    718.15894   -426.69058            0   -9.5769012            0            0            0            0            0            0 
10234000    758.89323     53984.29    375.34087   -427.60169    571.71694    144.11525    741.59606   -427.60169            0   -9.7007767            0            0            0            0            0            0 
10235000    712.37842    54374.761    401.60429   -435.30685    611.72122    176.41437    741.33054   -435.30685            0   -9.6311144            0            0            0            0            0            0 
10236000    701.76501     50386.83     402.8426   -488.47116    613.60741    125.13625    640.82141   -488.47116            0   -10.393382            0            0            0            0            0            0 
10237000    602.44016    54615.495    370.01821   -434.92061    563.60949    128.68888    608.53908   -434.92061            0   -9.5886625            0            0            0            0            0            0 
10238000    700.44963    52512.416     366.8165   -452.84366    558.73267    105.88901    642.32116   -452.84366            0   -9.9726805            0            0            0            0            0            0 
10239000    598.47043    51075.549    359.62335   -477.84607     547.7761    69.930037    515.72138   -477.84607            0   -10.253234            0            0            0            0            0            0 
10240000    583.69982    54991.228    382.96003   -438.68147     583.3224    144.64093    612.76273   -438.68147            0   -9.5231469            0            0            0            0            0            0 
10241000    749.16554    51854.425    369.33521   -449.00011    562.56915    113.56904    680.12069   -449.00011            0   -10.099226            0            0            0            0            0            0 
10242000    595.03663     53505.26    386.00818   -452.05661    587.96532    135.90871     600.2273   -452.05661            0   -9.7876273            0            0            0            0            0            0 
10243000    728.52152    51809.138    389.92231   -463.05357    593.92731    130.87373    681.33231   -463.05357            0   -10.108054            0            0            0            0            0            0 
10244000    710.40697    53558.337    363.29771   -439.53334    553.37287    113.83953    668.73373   -439.53334            0   -9.7779278            0            0            0            0            0            0 
10245000    804.60361    53396.642     371.0272   -428.50974    565.14637    136.63664    763.20984   -428.50974            0    -9.807537            0            0            0            0            0            0 
10246000    617.79075    53676.121    394.26232   -452.92998    600.53798      147.608     631.2215   -452.92998            0   -9.7564715            0            0            0            0            0            0 
10247000    699.56108    51815.698    370.09347   -462.50442    563.72412    101.21971    629.86318   -462.50442            0   -10.106774            0            0            0            0            0            0 
10248000    795.51631    51550.695    379.85034   -459.30375    578.58573    119.28198    717.36229   -459.30375            0   -10.158729            0            0            0            0            0            0 
10249000    533.03515    53765.339    385.78041   -462.13134    587.61838    125.48704    543.44647   -462.13134            0   -9.7402817            0            0            0            0            0            0 
10250000    690.28815    52308.743    371.33825   -463.47277    565.62016    102.14739    628.74707   -463.47277            0   -10.011511            0            0            0            0            0            0 
10251000    613.02841    54802.474    357.94381   -440.62876    545.21784    104.58907    594.54459   -440.62876            0   -9.5559471            0            0            0            0            0            0 
10252000    628.89894     53375.29    397.98196   -448.46754     606.2037    157.73616    647.28611   -448.46754            0   -9.8114604            0            0            0            0            0            0 
10253000    717.30767    51908.393    393.24137   -467.46152    598.98286    131.52135    674.54525   -467.46152            0   -10.088726            0            0            0            0            0            0 
10254000    771.61151    53841.139    391.40139   -430.53538    596.18023    165.64484    771.52793   -430.53538            0   -9.7265689            0            0            0            0            0            0 
10255000     900.4442    51223.227    380.19159   -449.82451    579.10553    129.28103    801.94726   -449.82451            0   -10.223673            0            0            0            0            0            0 
10256000    700.55709     52591.27     389.7857    -447.9753    593.71921    145.74391    683.06401    -447.9753            0   -9.9577276            0            0            0            0            0            0 
10257000    573.31198    53279.899    368.89294   -463.22303     561.8955    98.672465    544.15461   -463.22303            0   -9.8290265            0            0            0            0            0            0 
10258000    609.06009    55285.248    366.55392   -438.95093    558.33271    119.38177    610.45391   -438.95093            0   -9.4725006            0            0            0            0            0            0 
10259000    686.43092    52782.749     385.5458   -457.20247    587.26102    130.05856    658.46089   -457.20247            0   -9.9216043            0            0            0            0            0            0 
10260000    660.42958    54077.997    386.67343   -444.88221    588.97862    144.09641    664.95881   -444.88221            0   -9.6839671            0            0            0            0            0            0 
10261000    607.81773    53446.284    384.47534   -462.94796    585.63051    122.68255    596.45169   -462.94796            0   -9.7984277            0            0            0            0            0            0 
10262000    656.97561    52581.162    376.41308   -449.52856    573.35012    123.82156    627.61826   -449.52856            0   -9.9596418            0            0            0            0            0            0 
10263000     835.9604    51010.088    382.10358   -455.92874    582.01786    126.08912    747.98497   -455.92874            0   -10.266392            0            0            0            0            0            0 
10264000    707.58168    54477.536    403.17975   -429.79645    614.12095     184.3245    746.49743   -429.79645            0   -9.6129448            0            0            0            0            0            0 
10265000    767.66362    53562.137    380.49467   -433.71857    579.56718    145.84861    745.50814   -433.71857            0    -9.777234            0            0            0            0            0            0 
10266000    625.29902    54409.725    361.96984   -441.96138    551.35027    109.38889    605.56993   -441.96138            0   -9.6249255            0            0            0            0            0            0 
10267000    629.88768    54281.219    374.03822   -443.53074    569.73275    126.20201    624.84371   -443.53074            0   -9.6477116            0            0            0            0            0            0 
10268000    626.79985    55439.004    403.49797   -432.75248    614.60566    181.85318    688.63403   -432.75248            0   -9.4462293            0            0            0            0            0            0 
10269000    588.54157    52082.609     370.0474   -471.86407    563.65396    91.789884    538.82924   -471.86407            0   -10.054979            0            0            0            0            0            0 
10270000    948.42925    52309.058    402.82358   -432.25575    613.57843    181.32268    904.85466   -432.25575            0   -10.011451            0            0            0            0            0            0 
10271000    715.37962    54005.829     385.8751   -439.17584    587.76261    148.58676    712.03378   -439.17584            0   -9.6969079            0            0            0            0            0            0 
10272000    695.26833    53712.612    368.05845   -441.73847     560.6244    118.88593    663.51975   -441.73847            0   -9.7498432            0            0            0            0            0            0 
10273000     721.5699    53262.016    372.07689   -442.32319    566.74526    124.42207    684.91727   -442.32319            0   -9.8323268            0            0            0            0            0            0 
10274000    746.54961    52028.876    382.04194   -452.65746    581.92397    129.26651    695.73924   -452.65746            0   -10.065363            0            0            0            0            0            0 
10275000     804.3036    52919.767    384.65893   -441.65512    585.91015    144.25503    765.00088   -441.65512            0   -9.8959155            0            0            0            0            0            0 
10276000      686.638    54018.337     394.4148   -445.52437    600.77023    155.24586    696.18067   -445.52437            0   -9.6946625            0            0            0            0            0            0 
10277000    859.35266    52533.792    392.61856   -441.09026    598.03422    156.94396    815.33827   -441.09026            0   -9.9686226            0            0            0            0            0            0 
10278000    595.26762    52623.434    372.96263   -469.04458    568.09442     99.04984    555.89321   -469.04458            0   -9.9516414            0            0            0            0            0            0 
10279000     684.0398    54214.122    380.46837   -437.53039    579.52711    141.99672    682.83783   -437.53039            0   -9.6596519            0            0            0            0            0            0 
10280000    518.88256    55147.466    374.48709   -440.20499    570.41647    130.21147    547.53275   -440.20499            0   -9.4961669            0            0            0            0            0            0 
10281000    679.82678    54311.108    390.77258   -441.05675    595.22243    154.16568     692.6373   -441.05675            0   -9.6424022            0            0            0            0            0            0 
10282000    795.17545    54160.479    371.27043   -425.09865    565.51687    140.41822    768.50746   -425.09865            0   -9.6692192            0            0            0            0            0            0 
10283000    910.75385        53141    392.68015   -426.26777    598.12803    171.86026    877.70084   -426.26777            0   -9.8547176            0            0            0            0            0            0 
10284000    805.93455    52276.389    375.23668   -443.19704    571.55824     128.3612     742.8037   -443.19704            0   -10.017707            0            0            0            0            0            0 
10285000    749.50596    51959.018     370.1981   -458.37782     563.8835    105.50568    673.45805   -458.37782            0   -10.078896            0            0            0            0            0            0 
10286000    726.44594    52560.669     399.4034   -460.20704    608.36883    148.16179    705.01416   -460.20704            0   -9.9635251            0            0            0            0            0            0 
10287000    801.70573    53486.845     384.7118   -427.78064    585.99068    158.21005    783.58121   -427.78064            0   -9.7909972            0            0            0            0            0            0 
10288000    774.57229    52234.484    398.06107     -456.271    606.32421    150.05321    740.11182     -456.271            0   -10.025744            0            0            0            0            0            0 
10289000    625.75216    55227.257    388.05882   -431.55171    591.08885    159.53714    663.53852   -431.55171            0   -9.4824471            0            0            0            0            0            0 
10290000    814.60781    51920.532    397.33521   -451.34669    605.21858    153.87189     770.6992   -451.34669            0   -10.086367            0            0            0            0            0            0 
10291000      730.093    52714.899    382.40818   -452.06512    582.48182    130.41671    691.70689   -452.06512            0   -9.9343745            0            0            0            0            0            0 
10292000    596.32494     54309.66    355.92013   -452.36639    542.13539    89.769001    562.08857   -452.36639            0   -9.6426593            0            0            0            0            0            0 
10293000    559.66477    53877.489    368.98402   -450.51043    562.03423    111.52379    551.27922   -450.51043            0   -9.7200065            0            0            0            0            0            0 
10294000    774.47635    53776.378    404.63886   -432.29938    616.34346    184.04408    791.44521   -432.29938            0   -9.7382821            0            0            0            0            0            0 
10295000    779.49324    52404.422    392.08819   -450.35166    597.22635    146.87469    742.61389   -450.35166            0   -9.9932319            0            0            0            0            0            0 
10296000    649.73434    53731.195    371.90224   -447.17111    566.47923    119.30812    628.44928   -447.17111            0   -9.7464713            0            0            0            0            0            0 
10297000    560.56832    54137.883    396.16165   -462.22259    603.43103    141.20844    583.80263   -462.22259            0   -9.6732549            0            0            0            0            0            0 
10298000    761.12914    53166.825    372.49999   -438.41545    567.38972    128.97428    719.14133   -438.41545            0   -9.8499308            0            0            0            0            0            0 
10299000    772.61436    53490.138    384.37812   -441.65555    585.48243    143.82687     746.5424   -441.65555            0   -9.7903944            0            0            0            0            0            0 
10300000    524.94218    55886.505    374.38966   -431.97392    570.26806    138.29413    566.14687   -431.97392            0   -9.3705904            0            0            0            0            0            0 
10301000    724.17678    53299.987    380.69809   -444.71626    579.87703    135.16077    698.08195   -444.71626            0   -9.8253221            0            0            0            0            0            0 
10302000    617.34694    53703.892    375.41893   -452.87443    571.83584    118.96141    602.47752   -452.87443            0   -9.7514262            0            0            0            0            0            0 
10303000     816.4545    51283.714    370.61588   -452.39749    564.51986    112.12237    722.76532   -452.39749            0   -10.211615            0            0            0            0            0            0 
10304000    608.10016      56432.2    388.28286   -423.55321     591.4301     167.8769    668.34683   -423.55321            0   -9.2799774            0            0            0            0            0            0 
10305000    713.67273    53429.224    373.34167   -440.80981    568.67177    127.86196    683.96319   -440.80981            0   -9.8015563            0            0            0            0            0            0 
10306000    658.06515    54275.521    386.07556   -441.19944    588.06795     146.8685    667.76182   -441.19944            0   -9.6487244            0            0            0            0            0            0 
10307000    722.77644    52611.232    390.34938   -455.90862    594.57782     138.6692    693.24172   -455.90862            0   -9.9539495            0            0            0            0            0            0 
10308000    949.84268     52278.98    362.13165   -425.37081    551.59674    126.22593    850.41951   -425.37081            0    -10.01721            0            0            0            0            0            0 
10309000    643.85016    54366.929     344.7594   -442.53973    525.13542    82.595693     593.0954   -442.53973            0   -9.6325019            0            0            0            0            0            0 
10310000    657.58525     52785.51    380.79568   -454.97065    580.02567    125.05502    631.27895   -454.97065            0   -9.9210853            0            0            0            0            0            0 
10311000    736.28265    51833.805    397.70413   -464.38024    605.78052    141.40028    697.98791   -464.38024            0   -10.103243            0            0            0            0            0            0 
10312000     751.8064    53540.561    389.60352   -431.20448    593.44172    162.23723    749.27335   -431.20448            0   -9.7811741            0            0            0            0            0            0 
10313000    640.84449    53255.456     384.4193   -456.52303    585.54515    129.02212    626.75078   -456.52303            0   -9.8335379            0            0            0            0            0            0 
10314000    852.18843    53168.835    400.31513   -439.98827    609.75758    169.76931    830.56723   -439.98827            0   -9.8495584            0            0            0            0            0            0 
10315000    642.04311    52375.827    389.93803   -468.82814    593.95124     125.1231    615.54627   -468.82814            0   -9.9986878            0            0            0            0            0            0 
10316000    736.21215    54007.774    380.62567   -437.22269    579.76672    142.54403    722.42004   -437.22269            0   -9.6965587            0            0            0            0            0            0 
10317000     563.1944    53814.128    366.36361   -452.50834    558.04282    105.53448    547.54288   -452.50834            0    -9.731451            0            0            0            0            0            0 
10318000    680.10715    52809.817    354.69713   -452.92955    540.27252    87.342968    611.14587   -452.92955            0   -9.9165187            0            0            0            0            0            0 
10319000    632.12289     55172.86    394.35705   -435.58348    600.68227    165.09879    673.72988   -435.58348            0   -9.4917963            0            0            0            0            0            0 
10320000    661.54196    51567.698    358.83087   -460.53947    546.56901    86.029533    583.55009   -460.53947            0    -10.15538            0            0            0            0            0            0 
10321000    526.35858    55162.895    354.22599   -440.68455    539.55487    98.870324    522.32277   -440.68455            0   -9.4935109            0            0            0            0            0            0 
10322000     704.9769    54637.795    396.62665   -436.27398     604.1393    167.86533    729.61645   -436.27398            0   -9.5847488            0            0            0            0            0            0 
10323000    721.58312    52528.696    368.25194   -454.18542    560.91913    106.73371    659.52205   -454.18542            0   -9.9695897            0            0            0            0            0            0 
10324000    718.52881      52025.1      362.233   -454.83766    551.75112    96.913453    642.08477   -454.83766            0   -10.066094            0            0            0            0            0            0 
10325000    848.18064    51729.383    393.28133    -451.0982    599.04373    147.94553    787.82996    -451.0982            0   -10.123638            0            0            0            0            0            0 
10326000    715.90603    53914.913    390.47032   -428.68281    594.76202    166.07921    728.99161   -428.68281            0   -9.7132597            0            0            0            0            0            0 
10327000    748.36992    53481.551     390.1189   -438.90234    594.22674     155.3244    739.03315   -438.90234            0   -9.7919663            0            0            0            0            0            0 
10328000     633.9238    54448.057    388.63148   -435.33264    591.96111    156.62846    660.00774   -435.33264            0   -9.6181493            0            0            0            0            0            0 
10329000    783.72288    54586.466    402.00326   -422.72517    612.32892    189.60375    813.51584   -422.72517            0   -9.5937617            0            0            0            0            0            0 
10330000    486.43955    55269.552    386.11576   -447.94046    588.12919    140.18873     532.2832   -447.94046            0   -9.4751906            0            0            0            0            0            0 
10331000    584.65972    52093.636    376.29176   -473.16043    573.16532    100.00489    544.18973   -473.16043            0   -10.052851            0            0            0            0            0            0 
10332000     636.0576     53276.83    363.50795   -447.54523     553.6931    106.14787    600.35694   -447.54523            0   -9.8295929            0            0            0            0            0            0 
10333000    567.18988    54558.146    372.83112   -447.92385    567.89411    119.97025    571.26883   -447.92385            0   -9.5987416            0            0            0            0            0            0 
10334000    704.86861     52056.95    400.93583   -463.70418    610.70302    146.99883    682.13313   -463.70418            0   -10.059935            0            0            0            0            0            0 
10335000    688.07747    56205.826    379.78173   -418.42607    578.48122    160.05516    724.07524   -418.42607            0   -9.3173534            0            0            0            0            0            0 
10336000    764.20143    53125.044    366.87278   -441.80395     558.8184    117.01444    709.09805   -441.80395            0   -9.8576775            0            0            0            0            0            0 
10337000    610.41693     53954.11    377.10023   -455.89259    574.39679     118.5042    598.82014   -455.89259            0    -9.706203            0            0            0            0            0            0 
10338000    622.22983    51358.473    363.35168   -479.85726    553.45508    73.597817    539.65459   -479.85726            0   -10.196751            0            0            0            0            0            0 
10339000    690.50406    53891.346    367.74783   -431.59218    560.15126    128.55909    671.26076   -431.59218            0   -9.7175072            0            0            0            0            0            0 
10340000    646.51757    54393.823    379.76444   -437.29504     578.4549    141.15986     654.0281   -437.29504            0   -9.6277393            0            0            0            0            0            0 
10341000    609.21601    53368.687    380.22865   -454.04665    579.16197    125.11532    599.28493   -454.04665            0   -9.8126744            0            0            0            0            0            0 
10342000    726.77927    53741.456    380.99274   -435.44306    580.32583    144.88277     714.5062   -435.44306            0   -9.7446103            0            0            0            0            0            0 
10343000     713.7337    52391.684    387.50959   -461.97428    590.25226    128.27798    673.62689   -461.97428            0   -9.9956616            0            0            0            0            0            0 
10344000    744.67108    51537.061    374.51543   -460.92607    570.45963    109.53356    669.23964   -460.92607            0   -10.161417            0            0            0            0            0            0 
10345000    756.17544    53818.964    364.55545   -426.36643    555.28865    128.92222    722.44008   -426.36643            0   -9.7305764            0            0            0            0            0            0 
10346000     671.9422    54276.309    402.08785   -450.07085    612.45778    162.38694    694.27239   -450.07085            0   -9.6485844            0            0            0            0            0            0 
10347000    765.84857    50348.952    396.44281   -478.33249    603.85928    125.52679    687.88006   -478.33249            0   -10.401201            0            0            0            0            0            0 
10348000    690.12894    54963.613    378.07949   -432.96616    575.88839    142.92223    696.12125   -432.96616            0   -9.5279317            0            0            0            0            0            0 
10349000    718.24553    53505.584    354.13035   -437.12594    539.40921    102.28327    662.74754   -437.12594            0   -9.7875682            0            0            0            0            0            0 
10350000    746.96007    52443.737    371.16505   -445.65473    565.35636    119.70162    691.00515   -445.65473            0   -9.9857404            0            0            0            0            0            0 
10351000    749.50065    52293.852    378.67443   -453.39737     576.7946    123.39723    695.00554   -453.39737            0   -10.014362            0            0            0            0            0            0 
10352000    642.91895    55656.941    364.59527   -426.45339    555.34931    128.89592    650.75284   -426.45339            0   -9.4092406            0            0            0            0            0            0 
10353000    729.78971    52026.759    378.70847   -457.37236    576.84644    119.47409    673.20707   -457.37236            0   -10.065773            0            0            0            0            0            0 
[...]
14939000    799.05772    51973.321    394.51544   -449.64837    600.92352    151.27515    756.94299   -449.64837            0   -10.076122            0            0            0            0            0            0 
14940000    676.04538    51944.921    369.10921   -465.16546    562.22492    97.059453    609.20669   -465.16546            0   -10.081631            0            0            0            0            0            0 
14941000    809.39469     52345.09    369.08933   -438.28032    562.19464    123.91432    741.80578   -438.28032            0   -10.004559            0            0            0            0            0            0 
14942000    726.53665     53529.02    370.73721   -437.91954    564.70466    126.78512    693.96747   -437.91954            0   -9.7832829            0            0            0            0            0            0 
14943000    579.87219    53560.886    380.55812   -457.44322    579.66383     122.2206    575.17651   -457.44322            0   -9.7774623            0            0            0            0            0            0 
14944000    789.27598    50839.076    380.09279   -466.16781    578.95503    112.78721    697.98466   -466.16781            0   -10.300926            0            0            0            0            0            0 
14945000    632.97761    53187.522    386.85877   -459.53562    589.26093    129.72531    620.71683   -459.53562            0   -9.8460979            0            0            0            0            0            0 
14946000    828.66911     51238.22    357.44838   -457.29889    544.46321    87.164317    706.39301   -457.29889            0   -10.220682            0            0            0            0            0            0 
14947000     721.8141    55963.127    354.05446   -421.90044     539.2936    117.39316    706.51242   -421.90044            0   -9.3577607            0            0            0            0            0            0 
14948000     641.6932     52897.75    367.77666   -461.60441    560.19518    98.590764    593.63103   -461.60441            0   -9.9000345            0            0            0            0            0            0 
14949000    630.98231    53967.846    368.93489   -443.14314    561.95939    118.81624    615.44075   -443.14314            0   -9.7037327            0            0            0            0            0            0 
14950000     688.1481    52543.089     381.5134   -454.17175     581.1189    126.94716    654.26614   -454.17175            0   -9.9668587            0            0            0            0            0            0 
14951000    715.63871    53357.991    375.16931   -441.51185    571.45561    129.94376    686.83346   -441.51185            0   -9.8146413            0            0            0            0            0            0 
14952000    660.15391    55219.771    367.14838   -427.58855    559.23818    131.64964    663.28724   -427.58855            0   -9.4837326            0            0            0            0            0            0 
14953000    823.92032    51434.909    384.73017   -451.50815    586.01867    134.51052    752.55407   -451.50815            0   -10.181598            0            0            0            0            0            0 
14954000    610.87512    54928.737    383.30914   -438.76027    583.85416    145.09389     634.4533   -438.76027            0   -9.5339812            0            0            0            0            0            0 
14955000    896.94443    52523.694    391.76742   -440.63821    596.73776    156.09955    843.16275   -440.63821            0   -9.9705391            0            0            0            0            0            0 
14956000    819.42115    52250.564    387.94335   -443.32074    590.91295    147.59221    772.00823   -443.32074            0   -10.022658            0            0            0            0            0            0 
14957000    560.66667    55468.011    379.85777   -442.71579    578.59706    135.88127    589.42923   -442.71579            0   -9.4412895            0            0            0            0            0            0 
14958000    773.07701     51800.05    380.48601   -455.82487    579.55398    123.72911    707.75059   -455.82487            0   -10.109827            0            0            0            0            0            0 
14959000    783.72458    52596.304    393.80123   -447.94219    599.83564    151.89345    753.05968   -447.94219            0   -9.9567747            0            0            0            0            0            0 
14960000    622.22598    54718.046    391.23968   -444.04991    595.93391      151.884    648.42442   -444.04991            0   -9.5706916            0            0            0            0            0            0 
14961000    714.82897    53914.983    386.79285   -437.31395    589.16053    151.84658    713.91283   -437.31395            0   -9.7132469            0            0            0            0            0            0 
14962000    809.25851    51567.433    400.78846   -456.79817    610.47855    153.68038     762.2898   -456.79817            0   -10.155432            0            0            0            0            0            0 
14963000    658.10652    54298.923    371.12596   -441.08028    565.29681    124.21653    645.36719   -441.08028            0    -9.644566            0            0            0            0            0            0 
14964000    756.12379    54604.118    373.34342   -429.17787    568.67443    139.49656    741.63199   -429.17787            0   -9.5906604            0            0            0            0            0            0 
14965000    646.89455    54072.687    395.99515   -443.97566    603.17741    159.20175    669.33934   -443.97566            0   -9.6849182            0            0            0            0            0            0 
14966000    801.77493    55657.453     402.3699   -412.76097    612.88739    200.12642    850.93263   -412.76097            0   -9.4091539            0            0            0            0            0            0 
14967000    666.42099    53446.004    355.23562   -446.86668    541.09274    94.226059    613.67133   -446.86668            0   -9.7984789            0            0            0            0            0            0 
14968000     629.8017    52567.757    353.28398   -463.54663    538.12002    74.573386    557.40885   -463.54663            0   -9.9621816            0            0            0            0            0            0 
14969000    565.26174    54515.125    381.18113   -448.94296    580.61279    131.66983    581.07958   -448.94296            0   -9.6063166            0            0            0            0            0            0 
14970000    635.27166    54750.043    376.46646   -430.32167    573.43142    143.10975    650.35716   -430.32167            0   -9.5650984            0            0            0            0            0            0 
14971000     835.6397    52772.997    378.62149   -431.76211    576.71395    144.95184    788.09361   -431.76211            0   -9.9234376            0            0            0            0            0            0 
14972000      628.395    54980.009    399.92692   -442.21439    609.16626    166.95187    670.81597   -442.21439            0   -9.5250902            0            0            0            0            0            0 
14973000    779.10499    50434.002    369.32067   -463.93739    562.54701    98.609622    671.66331   -463.93739            0    -10.38366            0            0            0            0            0            0 
14974000      642.621     54244.81    375.82671   -447.17573    572.45697    125.28124    633.66187   -447.17573            0   -9.6541872            0            0            0            0            0            0 
14975000    628.82843    53403.721    370.14981   -457.18136    563.80994    106.62858    596.38437   -457.18136            0    -9.806237            0            0            0            0            0            0 
14976000    628.21706    53486.339    354.89876   -448.51397    540.57964    92.065672    582.10224   -448.51397            0   -9.7910898            0            0            0            0            0            0 
14977000    633.77098    53937.457     372.9605   -453.73693    568.09117    114.35424    612.89274   -453.73693            0   -9.7091999            0            0            0            0            0            0 
14978000    599.64475    53852.675    365.26686   -450.63892    556.37227    105.73336    576.68596   -450.63892            0   -9.7244854            0            0            0            0            0            0 
14979000    658.80894    52890.363    402.51565   -455.93526     613.1094    157.17414    665.34753   -455.93526            0   -9.9014171            0            0            0            0            0            0 
14980000    783.45411    53533.552    384.78701   -435.47473    586.10524    150.63051    762.29816   -435.47473            0   -9.7824546            0            0            0            0            0            0 
14981000    689.83955    52467.838    359.95601   -449.92863    548.28281    98.354182    626.21223   -449.92863            0   -9.9811535            0            0            0            0            0            0 
14982000    783.36077    55793.328    389.06323   -421.23754    592.61875    171.38121    808.79282   -421.23754            0   -9.3862397            0            0            0            0            0            0 
14983000    834.14784    52293.211    364.58625   -440.27431    555.33556    115.06125    751.21813   -440.27431            0   -10.014484            0            0            0            0            0            0 
14984000    697.07676    51827.029    396.09953   -469.67735     603.3364    133.65905    660.54038   -469.67735            0   -10.104564            0            0            0            0            0            0 
14985000    764.32007    53962.147    391.48187   -435.58968     596.3028    160.71313    762.21969   -435.58968            0   -9.7047574            0            0            0            0            0            0 
14986000    786.73023    54463.933    369.37819   -420.58105    562.63461    142.05356    766.95385   -420.58105            0   -9.6153457            0            0            0            0            0            0 
14987000    585.87668    54165.011    373.39577   -436.76701    568.75417    131.98716    594.79525   -436.76701            0   -9.6684101            0            0            0            0            0            0 
14988000    818.33731    50186.585    364.58706   -467.93402     555.3368    87.402782    686.36012   -467.93402            0   -10.434851            0            0            0            0            0            0 
14989000    773.38142    53901.906    357.18151   -428.09236    544.05671    115.96435    723.92258   -428.09236            0   -9.7156035            0            0            0            0            0            0 
14990000    712.43585    54318.691    384.80859   -428.70677    586.13811    157.43134    721.81048   -428.70677            0   -9.6410561            0            0            0            0            0            0 
14991000    602.68549    53948.588    372.15266   -456.20047    566.86068    110.66021    584.84401   -456.20047            0   -9.7071965            0            0            0            0            0            0 
14992000    718.90444    51883.682    377.85048   -463.14612    575.53955    112.39343    656.36706   -463.14612            0   -10.093531            0            0            0            0            0            0 
14993000    686.21075    54515.922    357.65905   -425.19857     544.7841    119.58553    665.16343   -425.19857            0    -9.606176            0            0            0            0            0            0 
14994000    703.22586    50710.641    391.66288    -478.1747    596.57853    118.40383    638.48344    -478.1747            0   -10.327015            0            0            0            0            0            0 
14995000    762.27466    55413.089    385.66629   -418.08554    587.44455    169.35901    785.38599   -418.08554            0   -9.4506471            0            0            0            0            0            0 
14996000    591.14789    53519.411    392.03474   -456.69156    597.14494    140.45338    601.85951   -456.69156            0   -9.7850394            0            0            0            0            0            0 
14997000    633.65041    52626.971    375.05127   -460.95565    571.27582    110.32017    596.65344   -460.95565            0   -9.9509726            0            0            0            0            0            0 
14998000    598.93694    53890.764     374.0088   -448.59065    569.68794    121.09729     591.8267   -448.59065            0   -9.7176123            0            0            0            0            0            0 
14999000    665.57873    51025.244    383.35021   -482.48562    583.91671    101.43109    596.72206   -482.48562            0   -10.263342            0            0            0            0            0            0 
15000000    608.48568    55047.968    373.72572   -444.99753    569.25675    124.25923    612.76257   -444.99753            0    -9.513331            0            0            0            0            0            0 
Loop time of 1562 on 8 procs for 5000000 steps with 512 atoms

Pair  time (%) = 873.526 (55.9237)
Bond  time (%) = 0.460211 (0.029463)
Neigh time (%) = 34.7603 (2.22538)
Comm  time (%) = 487.4 (31.2036)
Outpt time (%) = 0.28716 (0.0183842)
Other time (%) = 165.563 (10.5995)

Nlocal:    64 ave 70 max 58 min
Histogram: 1 0 0 2 2 0 0 2 0 1
Nghost:    1300 ave 1310 max 1292 min
Histogram: 1 2 1 0 1 0 1 0 0 2
Neighs:    6023.88 ave 6616 max 5101 min
Histogram: 1 0 1 0 1 1 0 1 2 1

Total # of neighbors = 48191
Ave neighs/atom = 94.123
Ave special neighs/atom = 0
Neighbor list builds = 90053
Dangerous builds = 0

Averages
Group Pressure(MPa) Volume(m3) Temperature(K) PE(J) KE(J) ET(J) ET^2(J) H(J) H^2(J^2) V^2(m6) V*H(m3*J) Hconf(J) Uext*Hconf(J^2) V*Hconf(m3*J) Uext(J)
Block1 70.134909661797024683 5.3376180954588718098e-26 380.35892331858025273 -3.1054257316063831496e-18 4.0252193018634624273e-18 9.197935702570833222e-19 8.7771312132195688309e-37 4.6578707044450928151e-18 2.194297594546673719e-35 2.8509256173336168548e-51 2.4857668226398778108e-43 6.3265140258162720993e-19 -1.9402826318155762953e-36 3.3716292254384363918e-44 -3.1054257316063831496e-18
Block2 70.146724221124102883 5.3375839595117009431e-26 379.74395940581877085 -3.1048616753886794416e-18 4.0187113314706564778e-18 9.1384965608197645844e-19 8.6494831874447913874e-37 4.6527452987765106064e-18 2.1889756445412011233e-35 2.8507761172566874378e-51 2.4828911209376230963e-43 6.340339673058482545e-19 -1.9468566302286166517e-36 3.3787357622422940744e-44 -3.1048616753886794416e-18
Block3 70.00634348657408168 5.340507693070990328e-26 379.99806044285361395 -3.1061284006672980394e-18 4.021400403124278369e-18 9.1527200245698321848e-19 8.6684679561330318637e-37 4.6488664726256261693e-18 2.1844463480477075006e-35 2.8538814211689296399e-51 2.4822237237222779908e-43 6.2746606950134808915e-19 -1.9281970338703208909e-36 3.3459909014007657003e-44 -3.1061284006672980394e-18
Block4 70.05600357219559271 5.3409762519973428559e-26 380.66135172352176141 -3.104019109669702329e-18 4.0284198069084827715e-18 9.2440069723878371657e-19 8.8779526333628946481e-37 4.6609238381325140245e-18 2.1989404960473982442e-35 2.8545880631088713363e-51 2.4892279927882498974e-43 6.3250403122403009742e-19 -1.9378521111021462887e-36 3.3758822554019946549e-44 -3.104019109669702329e-18
Block5 69.971901421221531336 5.3430180887465786002e-26 379.64525941079574523 -3.1037803899416662541e-18 4.0176668203504932927e-18 9.1388643040882665335e-19 8.6698341895233918733e-37 4.6470781903813301177e-18 2.1846809191592125478e-35 2.8567245850107366459e-51 2.4825626660260861252e-43 6.294113700308452991e-19 -1.9306817717477452736e-36 3.3581729120056709991e-44 -3.1037803899416662541e-18
Ave_blocks 70.063176472582469501 5.3399408177570973666e-26 380.08151086031398336 -3.1048430614547455346e-18 4.0222835327434746677e-18 9.1744047128873048122e-19 8.7285738359367360548e-37 4.6534969008722153629e-18 2.1902682004684385201e-35 2.8533791607757681455e-51 2.4845344652228232231e-43 6.3121336812873973224e-19 -1.93677403575288108e-36 3.3660822112978318663e-44 -3.1048430614547455346e-18
Stdev_blocks 0.068903483976935075983 2.0886784383262122789e-29 0.38062931638532082612 8.7179299885432471448e-22 4.0280807869592962139e-21 4.1038820043953632456e-21 8.7166779836920762928e-39 5.2439521467192539255e-21 5.6254263146679876345e-38 2.2672134725335121915e-54 2.6636818355458484823e-46 2.4074458739007035587e-21 6.7202953231789080148e-39 1.2273062621013777557e-46 8.7179299885432471448e-22






Properties
Group rho(kg/m3) Cp(J/K) Cp_conf(J/K) Cp_id(J/K) Cp2(J/K) kT(1/Pa) aP(1/K) aP2(1/K) Cv(J/K) uJT(K/Pa) sos(m/s) Cv2(J/K) uJT2(K/Pa) sos2(m/s) CvNVT(J/K)
Block1 255.53034923544299772 1.2376758600235529436e-19 3.297737775124332433e-21 3.3606641125659251516e-20 3.6904378900783580939e-20 6.810269844893107925e-09 -0.00040020031392996744052 -0.00048983291445008146203 1.2329013189267710127e-19 -4.9690789344230906491e-07 759.51419868676816805 3.6189104446759273599e-20 -1.7158077969106189251e-06 765.50252550114510086 1.5866884891799900885e-20
Block2 255.53198345245357359 1.2140689702629084294e-19 1.917378295353840589e-21 3.3578537595667711507e-20 3.5495915891021555105e-20 6.4173365810583599699e-09 -0.00051825328474560067391 -0.00051508270896632318836 1.2055856687600202646e-19 -5.2616775576308357967e-07 783.65083248075529809 3.4657933837244634326e-20 -1.7978442887318391142e-06 790.29242119564105451 1.4981193842346664658e-20
Block3 255.39208899326928304 1.1662306461264298112e-19 1.6063301463149442403e-21 3.3590144822636819469e-20 3.5196474968951763709e-20 6.3499827642766411412e-09 -0.00047618193497417219458 -0.00046928292425962685186 1.1589839974086499615e-19 -5.4079036858562129366e-07 787.7048356347720528 3.449265613827103205e-20 -1.7879240131961851493e-06 793.22477826204794837 1.4608458915959600082e-20
Block4 255.36968368057520706 1.3255704003729130247e-19 4.8457236278001537342e-21 3.3620477206657726003e-20 3.8466200834457878232e-20 7.072780812314735224e-09 -0.00015007753233802073058 -0.00021588375762241073679 1.3249229587837822053e-19 -4.2593734497978017721e-07 744.26280788104145358 3.8332230336879114531e-20 -1.5025893105150968243e-06 745.38016862083361502 1.6634296691524343416e-20
Block5 255.2720940418880673 1.2637262786124098033e-19 2.7433737171584115064e-21 3.3574030948544078919e-20 3.6317404665702488921e-20 6.9284075363333650449e-09 -0.00035704249908991432224 -0.00044989688972583383739 1.259994026026411014e-19 -4.8010883211890259476e-07 753.05011998838051568 3.5724810758615950591e-20 -1.7224832451250620007e-06 758.1480999876353053 1.5977903759806468508e-20
Ave_blocks 255.41923988072585416 1.2414544310796428506e-19 2.8821087123503365758e-21 3.359396633983311989e-20 3.6476075052183454585e-20 6.7157555077752407029e-09 -0.00038035111301553504526 -0.00042799583900485530744 1.2364775939811269398e-19 -4.9398243897793943733e-07 765.63655893434338395 3.5879347103553998612e-20 -1.7053297308957604874e-06 770.50959871346060481 1.5613747620287396714e-20
Stdev_blocks 0.099901238452693649772 5.2904423952496153899e-21 1.1494428371975564072e-21 1.7398541442205559302e-23 1.1633838112816624662e-21 2.8441676074436305928e-10 0.00012819029575069664211 0.00010824394793171084191 5.5403904967220326691e-21 4.0144855110059427753e-08 17.112929979180680817 1.3821164531411809136e-21 1.0666627382099947702e-07 18.529463764331225661 7.2786513036646789164e-22






