LAMMPS (28 Oct 2012)
Scanning data file ...
Reading data file ...
  orthogonal box = (0 0 0) to (100 100 100)
  2 by 2 by 2 MPI processor grid
  512 atoms
Finding 1-2 1-3 1-4 neighbors ...
  0 = max # of 1-2 neighbors
  0 = max # of 1-3 neighbors
  0 = max # of 1-4 neighbors
  1 = max # of special neighbors
WARNING: Resetting reneighboring criteria during minimization (min.cpp:173)
Setting up minimization ...
Memory usage per processor = 4.05499 Mbytes
Step Temp E_pair E_mol TotEng Press 
       0       300.15    1409.7233            0      1866.91    433.41551 
     701       300.15   -217.27527            0    239.91139    20.670609 
Loop time of 0.0532477 on 8 procs for 701 steps with 512 atoms

Minimization stats:
  Stopping criterion = energy tolerance
  Energy initial, next-to-last, final = 
         1409.72334813     -217.256630745     -217.275265106
  Force two-norm initial, final = 5034.49 0.337455
  Force max component initial, final = 2457.89 0.147661
  Final line search alpha, max atom move = 0.254892 0.0376377
  Iterations, force evaluations = 701 710

Pair  time (%) = 0.00891787 (16.7479)
Bond  time (%) = 6.25253e-05 (0.117424)
Neigh time (%) = 0.00314063 (5.89815)
Comm  time (%) = 0.0211994 (39.8128)
Outpt time (%) = 0 (0)
Other time (%) = 0.0199273 (37.4237)

Nlocal:    64 ave 74 max 52 min
Histogram: 1 0 0 1 1 2 0 2 0 1
Nghost:    235.125 ave 266 max 224 min
Histogram: 4 0 2 0 0 1 0 0 0 1
Neighs:    316.25 ave 371 max 226 min
Histogram: 1 0 0 1 1 1 0 1 0 3

Total # of neighbors = 2530
Ave neighs/atom = 4.94141
Ave special neighs/atom = 0
Neighbor list builds = 60
Dangerous builds = 0
Setting up run ...
Memory usage per processor = 3.36354 Mbytes
Step Temp E_pair E_mol TotEng Press Volume 
     701       300.15   -217.27527            0    239.91139    20.670609      1000000 
 5000701    278.28761    -480.2388            0   -56.352803    513.05842    51233.453 
Loop time of 1667.99 on 8 procs for 5000000 steps with 512 atoms

Pair  time (%) = 922.539 (55.3085)
Bond  time (%) = 0.451178 (0.0270493)
Neigh time (%) = 31.8197 (1.90767)
Comm  time (%) = 551.996 (33.0936)
Outpt time (%) = 5.27203e-05 (3.16071e-06)
Other time (%) = 161.181 (9.66319)

Nlocal:    64 ave 72 max 56 min
Histogram: 1 0 1 1 0 2 1 0 1 1
Nghost:    1383 ave 1418 max 1357 min
Histogram: 1 1 3 0 0 1 0 0 1 1
Neighs:    6471 ave 7742 max 5609 min
Histogram: 2 1 0 1 1 1 1 0 0 1

Total # of neighbors = 51768
Ave neighs/atom = 101.109
Ave special neighs/atom = 0
Neighbor list builds = 80316
Dangerous builds = 13
Setting up run ...
Memory usage per processor = 3.96751 Mbytes
Step Press Volume Temp PotEng KinEng TotEng Enthalpy E_vdwl E_coul E_tail E_long E_bond E_angle E_dihed E_impro E_mol 
10000000    513.05842    51233.453    278.28761    -480.2388    423.88599   -56.352803    326.99796    -480.2388            0   -10.221633            0            0            0            0            0            0 
10001000    600.12167    48851.644    303.84051   -501.79209    462.80803   -38.984059     388.5733   -501.79209            0   -10.719998            0            0            0            0            0            0 
10002000    463.33855    51453.145    287.48446   -482.17765    437.89458   -44.283061    303.40218   -482.17765            0   -10.177989            0            0            0            0            0            0 
10003000    528.74091    50251.865    315.70864   -498.33831    480.88548    -17.45283    370.04653   -498.33831            0   -10.421296            0            0            0            0            0            0 
10004000    586.13689    48561.394    305.77249    -503.6523    465.75081   -37.901494    377.21127    -503.6523            0   -10.784072            0            0            0            0            0            0 
10005000    415.12694    53169.669    287.24833   -471.51746    437.53491   -33.982556    287.91729   -471.51746            0   -9.8494038            0            0            0            0            0            0 
10006000    446.93215    51266.628    297.59731   -491.09201    453.29841     -37.7936    296.36469   -491.09201            0   -10.215018            0            0            0            0            0            0 
10007000    605.26636    50463.325    298.94015   -493.21392    455.34383   -37.870093    407.57922   -493.21392            0   -10.377627            0            0            0            0            0            0 
10008000    554.93962    50691.948    305.77548   -486.55017    465.75536    -20.79481    389.46654   -486.55017            0   -10.330823            0            0            0            0            0            0 
10009000     718.0427    47423.632    294.34913   -508.48522    448.35081   -60.134408     436.4819   -508.48522            0   -11.042797            0            0            0            0            0            0 
10010000    402.99205    49463.155    327.45478   -522.70237    498.77714   -23.925237    266.78089   -522.70237            0   -10.587467            0            0            0            0            0            0 
10011000    457.06169    51260.459    304.93625   -492.86108    464.47704    -28.38404    313.30669   -492.86108            0   -10.216248            0            0            0            0            0            0 
10012000     551.4412    48871.417    290.98599   -519.38852     443.2281   -76.160419     316.8735   -519.38852            0   -10.715661            0            0            0            0            0            0 
10013000    586.31636    49889.124    270.26857   -493.46918    411.67144   -81.797737    344.79532   -493.46918            0   -10.497068            0            0            0            0            0            0 
10014000     494.5256    50469.252    316.20185   -499.82872    481.63674   -18.191981    345.79977   -499.82872            0   -10.376408            0            0            0            0            0            0 
10015000    578.41255    50728.997    291.53656   -484.89227    444.06673   -40.825542    387.10164   -484.89227            0   -10.323278            0            0            0            0            0            0 
10016000     359.4474    50792.491    297.24478   -508.44196    452.76145   -55.680518    210.58244   -508.44196            0   -10.310373            0            0            0            0            0            0 
10017000    366.16402    51428.957    281.07387   -494.63615    428.13002   -66.506127    208.13102   -494.63615            0   -10.182776            0            0            0            0            0            0 
10018000    438.76354    49692.958    298.95276   -516.84576    455.36303    -61.48273    256.49834   -516.84576            0   -10.538506            0            0            0            0            0            0 
10019000    379.74004    51380.452    296.05586   -497.99918    450.95049   -47.048684    237.50237   -497.99918            0   -10.192389            0            0            0            0            0            0 
10020000    436.24733    49490.638    286.97171   -510.39958    437.11356   -73.286021     241.5843   -510.39958            0   -10.581588            0            0            0            0            0            0 
10021000    416.96847    50131.012    311.92276   -513.11627    475.11886   -37.997409    266.85215   -513.11627            0   -10.446419            0            0            0            0            0            0 
10022000     452.2247    50081.727    288.49004   -492.77908    439.42627   -53.352813    276.94786   -492.77908            0   -10.456699            0            0            0            0            0            0 
10023000    541.60402    49336.685    284.32294   -507.18468    433.07898   -74.105698     315.5919   -507.18468            0   -10.614607            0            0            0            0            0            0 
10024000    342.10043    51828.431    291.16559   -494.09499    443.50166   -50.593335    207.98823   -494.09499            0   -10.104291            0            0            0            0            0            0 
10025000    443.67464    50465.611    284.60431    -495.5191    433.50756   -62.011543    264.52819    -495.5191            0   -10.377157            0            0            0            0            0            0 
10026000    483.39555    49554.638    299.98621   -512.77818    456.93718   -55.841002    293.51069   -512.77818            0   -10.567922            0            0            0            0            0            0 
10027000    561.14054     49294.15    305.98557   -498.24555    466.07537   -32.170182    371.23634   -498.24555            0   -10.623767            0            0            0            0            0            0 
10028000     479.8985    50075.572    301.91273   -499.99879    459.87164   -40.127144    310.34314   -499.99879            0   -10.457984            0            0            0            0            0            0 
10029000    416.70505    51415.105     299.7663    -493.9523     456.6022     -37.3501    275.11058    -493.9523            0   -10.185519            0            0            0            0            0            0 
10030000    704.07107    48489.098    304.16888    -499.9965    463.30819   -36.688311    461.20523    -499.9965            0    -10.80015            0            0            0            0            0            0 
10031000     483.3372    48211.023     313.3293   -531.18063    477.26129   -53.919334    285.91907   -531.18063            0   -10.862444            0            0            0            0            0            0 
10032000    485.61077     50741.25    310.05035   -497.88091    472.26682   -25.614097    333.74229   -497.88091            0   -10.320785            0            0            0            0            0            0 
10033000    551.31537    51090.434    294.06667   -482.58515    447.92056   -34.664584    376.12137   -482.58515            0   -10.250247            0            0            0            0            0            0 
10034000    513.33595    50081.594    312.53302   -505.75532    476.04839   -29.706922    345.22785   -505.75532            0   -10.456727            0            0            0            0            0            0 
10035000    589.51622    50444.326    308.54373   -487.57574    469.97193    -17.60381    416.09074   -487.57574            0   -10.381535            0            0            0            0            0            0 
10036000    604.17323    48669.237    301.38877   -504.58452    459.07355   -45.510963     383.3257   -504.58452            0   -10.760176            0            0            0            0            0            0 
10037000    544.59501    49581.211    306.90452   -500.17778    467.47511   -32.702673    361.08914   -500.17778            0   -10.562258            0            0            0            0            0            0 
10038000     594.7425    49776.492    320.83521   -494.25859    488.69425   -5.5643336    426.18249   -494.25859            0   -10.520821            0            0            0            0            0            0 
10039000    535.48446    50045.169    298.17687   -496.78699     454.1812   -42.605791    348.22154   -496.78699            0   -10.464338            0            0            0            0            0            0 
10040000    535.96333    50000.437    299.88348   -491.30291     456.7807   -34.522211    356.30498   -491.30291            0   -10.473699            0            0            0            0            0            0 
10041000    536.02818    51242.504     297.0135   -487.32262    452.40917   -34.913447    365.67079   -487.32262            0   -10.219827            0            0            0            0            0            0 
10042000    430.32316     50090.57     303.6923   -509.91163    462.58226   -47.329365    267.03013   -509.91163            0   -10.454853            0            0            0            0            0            0 
10043000    541.09888     48310.51    291.77446   -516.16227    444.42909   -71.733185    309.50302   -516.16227            0   -10.840075            0            0            0            0            0            0 
10044000    485.44906    49868.463    306.10721   -508.34288    466.26065   -42.082228    310.97535   -508.34288            0   -10.501417            0            0            0            0            0            0 
10045000     560.5764    48551.508    300.35106   -514.30757    457.49292   -56.814653    340.11489   -514.30757            0   -10.786267            0            0            0            0            0            0 
10046000    484.68296    50114.132    302.43274   -504.44971    460.66372   -43.785993    310.45095   -504.44971            0   -10.449938            0            0            0            0            0            0 
10047000    518.88245     50374.66     321.2952   -503.26648     489.3949   -13.871579    367.33202   -503.26648            0   -10.395892            0            0            0            0            0            0 
10048000    556.62283    51325.931    307.93695   -478.50547    469.04769   -9.4577826    407.19447   -478.50547            0   -10.203216            0            0            0            0            0            0 
10049000    470.39807    47512.269    298.15856   -529.27972    454.15331   -75.126417    250.82074   -529.27972            0   -11.022196            0            0            0            0            0            0 
10050000    463.58706    50400.436    305.84271   -500.56662    465.85776   -34.708864    306.04554   -500.56662            0   -10.390576            0            0            0            0            0            0 
10051000    571.36149    50624.949    320.98517   -497.57396    488.92266   -8.6512967     413.1923   -497.57396            0   -10.344495            0            0            0            0            0            0 
10052000    448.57185    52436.717    308.82411   -480.68245    470.39902   -10.283435    332.75549   -480.68245            0   -9.9870772            0            0            0            0            0            0 
10053000     491.9718    51926.269     292.0753   -477.92494    444.88733   -33.037614    339.52839   -477.92494            0   -10.085253            0            0            0            0            0            0 
10054000    538.39432    50093.839    295.01876    -495.2606    449.37078   -45.889815    347.44345    -495.2606            0   -10.454171            0            0            0            0            0            0 
10055000    398.86511    51050.574    299.77084   -500.93225    456.60912   -44.323126    252.64003   -500.93225            0    -10.25825            0            0            0            0            0            0 
10056000    491.96544    50000.428    307.73388   -506.38636    468.73838    -37.64798    321.09566   -506.38636            0   -10.473701            0            0            0            0            0            0 
10057000    488.49704    52707.728    297.86687   -466.49773    453.70901   -12.788715    362.71317   -466.49773            0    -9.935726            0            0            0            0            0            0 
10058000    548.67811    48633.736    309.27135    -515.8621    471.08024   -44.781861    344.38079    -515.8621            0    -10.76803            0            0            0            0            0            0 
10059000    554.81684    48374.264    301.76952   -514.88931     459.6535   -55.235813    336.18137   -514.88931            0   -10.825788            0            0            0            0            0            0 
10060000    432.36843    51956.856    307.80321    -487.9275    468.84398    -19.08352    308.53823    -487.9275            0   -10.079316            0            0            0            0            0            0 
10061000    467.27192    48127.913    292.26831   -531.66911    445.18131   -86.487798    241.48861   -531.66911            0   -10.881202            0            0            0            0            0            0 
10062000    393.31844    49514.381    298.10693   -511.56353    454.07467   -57.488865    226.53286   -511.56353            0   -10.576514            0            0            0            0            0            0 
10063000    482.14101    49258.265    303.09118   -511.88082    461.66665   -50.214174     296.1469   -511.88082            0   -10.631506            0            0            0            0            0            0 
10064000    476.25951    50987.814    297.57648   -492.10431    453.26668   -38.837623    315.31131   -492.10431            0   -10.270877            0            0            0            0            0            0 
10065000    418.13434    49303.107    286.93226   -519.34123    437.05348   -82.287749    218.36558   -519.34123            0   -10.621836            0            0            0            0            0            0 
10066000    430.85337    50727.182    310.28667   -496.45459    472.62678   -23.827807     294.9192   -496.45459            0   -10.323647            0            0            0            0            0            0 
10067000     431.3184    48769.703    287.41228   -520.07921    437.78464   -82.294566    224.48327   -520.07921            0    -10.73801            0            0            0            0            0            0 
10068000    630.91892    47689.789    294.54694   -525.36854    448.65211   -76.716428    362.09187   -525.36854            0   -10.981167            0            0            0            0            0            0 
10069000    496.83438    50516.972     298.2165   -505.61255    454.24156   -51.370987    314.66588   -505.61255            0   -10.366606            0            0            0            0            0            0 
10070000    431.72801    48897.259    298.27855   -525.99379    454.33608   -71.657709     236.2146   -525.99379            0   -10.709998            0            0            0            0            0            0 
10071000    475.79576    51369.476    298.63454   -492.01377    454.87832   -37.135451    319.31699   -492.01377            0   -10.194567            0            0            0            0            0            0 
10072000    593.50775    50229.105     307.0822   -483.46801    467.74575   -15.722263    419.04589   -483.46801            0   -10.426018            0            0            0            0            0            0 
10073000     504.7027     48398.02    283.39027   -521.13195    431.65834   -89.473611    266.76347   -521.13195            0   -10.820474            0            0            0            0            0            0 
10074000    488.81607    52117.095    305.02127    -470.8107    464.60655   -6.2041538    365.33241    -470.8107            0   -10.048326            0            0            0            0            0            0 
10075000    469.99614    50650.872    298.25526   -488.79782    454.30061   -34.497216    312.68471   -488.79782            0   -10.339201            0            0            0            0            0            0 
10076000    531.99115    49669.115    300.50368   -497.70158    457.72538   -39.976198    345.38387   -497.70158            0   -10.543565            0            0            0            0            0            0 
10077000    478.45365    47666.656    300.03763   -532.34245     457.0155   -75.326957    257.27932   -532.34245            0   -10.986496            0            0            0            0            0            0 
10078000    415.54312    51128.825    290.98102   -496.07829    443.22052   -52.857765    256.99673   -496.07829            0    -10.24255            0            0            0            0            0            0 
10079000    414.30799    50017.111     308.8471   -524.84975    470.43404   -54.415719    247.80052   -524.84975            0   -10.470208            0            0            0            0            0            0 
10080000    559.75015    51058.174    310.58872   -482.10278    473.08686   -9.0159206    407.79145   -482.10278            0   -10.256723            0            0            0            0            0            0 
10081000    539.35386    48932.059    304.82657   -512.90984    464.30998   -48.599863    336.29594   -512.90984            0   -10.702381            0            0            0            0            0            0 
10082000     454.9592    53139.149    315.57255   -477.09104     480.6782    3.5871592    356.17143   -477.09104            0   -9.8550608            0            0            0            0            0            0 
10083000    562.59547    49673.246    298.48539   -499.71461    454.65114   -45.063467    362.49944   -499.71461            0   -10.542688            0            0            0            0            0            0 
10084000    584.83749    50148.384    288.33995   -495.77113    439.19766    -56.57347    371.15489   -495.77113            0     -10.4428            0            0            0            0            0            0 
10085000    461.82706    50939.014    279.73587   -494.34434    426.09199    -68.25235    274.83586   -494.34434            0   -10.280716            0            0            0            0            0            0 
10086000    396.71443    49254.251    287.37827   -515.38997    437.73284   -77.657139    207.31186   -515.38997            0   -10.632373            0            0            0            0            0            0 
10087000    491.47049    50454.725     309.7649   -499.23306    471.83202   -27.401037     334.2379   -499.23306            0   -10.379396            0            0            0            0            0            0 
10088000    499.31818    50240.016    296.03072   -496.43044     450.9122   -45.518238    320.33174   -496.43044            0   -10.423754            0            0            0            0            0            0 
10089000    449.75885    50568.374    278.40037   -488.05699    424.05775   -63.999241    267.69245   -488.05699            0   -10.356069            0            0            0            0            0            0 
10090000    526.34167     49416.62    304.25585   -512.59664    463.44066   -49.155984    330.17357   -512.59664            0   -10.597438            0            0            0            0            0            0 
10091000    613.13061    51243.304    306.21933   -470.66025    466.43143   -4.2288184    453.98271   -470.66025            0   -10.219668            0            0            0            0            0            0 
10092000    552.82162    50060.108    318.84816   -499.63049    485.66759   -13.962903    389.63853   -499.63049            0   -10.461215            0            0            0            0            0            0 
10093000    462.67513    49327.377    305.11962   -522.85033    464.75635   -58.093983    274.74951   -522.85033            0    -10.61661            0            0            0            0            0            0 
10094000     499.9241    49507.164    296.15404   -505.25627    451.10003   -54.156237    306.79456   -505.25627            0   -10.578056            0            0            0            0            0            0 
10095000    478.28085    49407.338    304.34747   -509.23373    463.58023   -45.653503    298.97432   -509.23373            0   -10.599429            0            0            0            0            0            0 
10096000    472.68621    50965.176    291.28307   -495.01479    443.68061   -51.334183    300.00157   -495.01479            0   -10.275439            0            0            0            0            0            0 
10097000    483.95776    50332.687    306.20151   -496.47024    466.40428   -30.065955    325.18353   -496.47024            0   -10.404562            0            0            0            0            0            0 
10098000    626.96181    49923.335    286.82459   -479.14872    436.88948   -42.259243    414.21951   -479.14872            0   -10.489875            0            0            0            0            0            0 
10099000     560.6983    51618.014    293.38686   -473.89842    446.88509   -27.013329    395.07799   -473.89842            0    -10.14548            0            0            0            0            0            0 
10100000    465.34759    49862.083     289.4858   -502.89758    440.94301   -61.954574     276.4403   -502.89758            0   -10.502761            0            0            0            0            0            0 
10101000    427.63345    51039.852    325.29002   -494.61716    495.47979   0.86262557    319.17752   -494.61716            0   -10.260405            0            0            0            0            0            0 
10102000    513.95084    48533.286      280.831   -512.57605    427.76007   -84.815973    278.96264   -512.57605            0   -10.790317            0            0            0            0            0            0 
10103000    480.87494    50467.143    324.11244   -505.96154    493.68611   -12.275432    341.65406   -505.96154            0   -10.376842            0            0            0            0            0            0 
10104000    417.77294    50951.914    291.13428   -499.37489    443.45397   -55.920916    254.51839   -499.37489            0   -10.278113            0            0            0            0            0            0 
10105000    465.13624    51322.515    293.76235   -487.52074    447.45703   -40.063703    308.08437   -487.52074            0   -10.203895            0            0            0            0            0            0 
10106000    426.33742    50451.158    289.54417    -503.1107    441.03193    -62.07877    251.61108    -503.1107            0   -10.380129            0            0            0            0            0            0 
10107000    555.20349    49674.529    294.34432   -499.56653    448.34349   -51.223042    350.99527   -499.56653            0   -10.542416            0            0            0            0            0            0 
10108000    425.75434    50963.669    312.43498   -498.23389    475.89907   -22.334822     294.1083   -498.23389            0   -10.275743            0            0            0            0            0            0 
10109000    572.24393    51797.209    308.26044   -472.76145    469.54044   -3.2210074     429.0573   -472.76145            0   -10.110382            0            0            0            0            0            0 
10110000     591.2942    48974.023    286.52565   -501.81672    436.43413    -65.38259    356.94095   -501.81672            0   -10.693211            0            0            0            0            0            0 
10111000     362.1965    51177.099    309.01592   -504.17897    470.69118   -33.487793    236.84318   -504.17897            0   -10.232888            0            0            0            0            0            0 
10112000    479.65651    50575.505    314.75139   -498.38433    479.42741   -18.956911    334.83382   -498.38433            0   -10.354608            0            0            0            0            0            0 
10113000    499.35276    50412.993    302.92895   -500.02896    461.41955   -38.609418    328.52561   -500.02896            0   -10.387988            0            0            0            0            0            0 
10114000     486.8347    52461.117    292.94138    -480.6622    446.20653   -34.455671    338.01746    -480.6622            0   -9.9824322            0            0            0            0            0            0 
10115000    416.68059    51856.219    283.84104   -485.72464    432.34496   -53.379679    261.74326   -485.72464            0   -10.098876            0            0            0            0            0            0 
10116000    570.23018    50581.219    296.13187   -487.94141    451.06627   -36.875142    383.76952   -487.94141            0   -10.353439            0            0            0            0            0            0 
10117000    587.38342    48800.537    296.04475   -499.27708    450.93357   -48.343517    369.70065   -499.27708            0   -10.731225            0            0            0            0            0            0 
10118000    452.23561    49905.903    287.58946   -509.21702    438.05453    -71.16249    257.98653   -509.21702            0   -10.493539            0            0            0            0            0            0 
10119000    408.70324    49678.155     284.6911   -515.63476    433.63976      -81.995    214.11251   -515.63476            0   -10.541647            0            0            0            0            0            0 
10120000    573.87451    49767.549    313.20083   -492.29143    477.06561   -15.225827    401.29726   -492.29143            0   -10.522711            0            0            0            0            0            0 
10121000    503.69045    49770.333    301.73018   -500.39307    459.59358   -40.799494    324.80385   -500.39307            0   -10.522123            0            0            0            0            0            0 
10122000    394.83587    47778.163     281.1393   -534.67367    428.22967     -106.444    168.67586   -534.67367            0   -10.960856            0            0            0            0            0            0 
10123000    405.01762    51567.393    307.35842   -489.50901    468.16647   -21.342536    283.25402   -489.50901            0    -10.15544            0            0            0            0            0            0 
10124000    579.06032     49533.97    309.59642   -498.55085    471.57539   -26.975467    391.33895   -498.55085            0   -10.572331            0            0            0            0            0            0 
10125000    597.34167    49304.928    300.38891   -501.26439    457.55057   -43.713825    385.81175   -501.26439            0   -10.621444            0            0            0            0            0            0 
10126000    511.01465    50852.478    291.74678   -487.74307    444.38692   -43.356147    335.62828   -487.74307            0   -10.298211            0            0            0            0            0            0 
10127000    478.77023    50528.017    304.84193   -497.94478    464.33337   -33.611404    319.19405   -497.94478            0    -10.36434            0            0            0            0            0            0 
10128000    463.48805    50700.352    305.72078   -494.68217    465.67204   -29.010123     313.6988   -494.68217            0   -10.329111            0            0            0            0            0            0 
10129000    486.20284    51040.617    299.93982    -498.2838    456.86651   -41.417286    320.49997    -498.2838            0   -10.260251            0            0            0            0            0            0 
10130000    590.19307    51414.199    297.89152   -474.24911    453.74656   -20.502551      422.038   -474.24911            0   -10.185699            0            0            0            0            0            0 
10131000    394.23971    48951.343    302.62658   -521.22003    460.95898   -60.261053     221.1887   -521.22003            0   -10.698165            0            0            0            0            0            0 
10132000    420.43725    50193.678    296.08246   -502.94468      450.991   -51.953682    255.81618   -502.94468            0   -10.433377            0            0            0            0            0            0 
10133000    547.39022        49851    305.35943    -496.9027    465.12163   -31.781071    366.18569    -496.9027            0   -10.505096            0            0            0            0            0            0 
10134000    586.40649    50350.258    312.61404   -488.17487    476.17181   -12.003064    418.59926   -488.17487            0   -10.400931            0            0            0            0            0            0 
10135000     523.6846     47986.75    284.49572   -518.37122    433.34216   -85.029064    281.46507   -518.37122            0   -10.913211            0            0            0            0            0            0 
10136000    580.67544    49038.328    286.60156   -502.54705    436.54975   -65.997303    349.28651   -502.54705            0   -10.679189            0            0            0            0            0            0 
10137000    570.00056    51839.261     285.1354   -471.94226    434.31651   -37.625749    393.30747   -471.94226            0    -10.10218            0            0            0            0            0            0 
10138000    420.40207    50558.303    289.76715   -502.57948    441.37156   -61.207914    248.77177   -502.57948            0   -10.358131            0            0            0            0            0            0 
10139000    551.45857    48314.343    298.71727   -519.24529    455.00433   -64.240954     324.3251   -519.24529            0   -10.839215            0            0            0            0            0            0 
10140000    508.68277    51211.161     294.3056   -485.69089    448.28451   -37.406385    342.50957   -485.69089            0   -10.226082            0            0            0            0            0            0 
10141000    468.04465    51160.052    289.31881   -485.14395    440.68865   -44.455299    304.76071   -485.14395            0   -10.236298            0            0            0            0            0            0 
10142000    518.83626    48858.485    305.87845   -511.91506     465.9122   -46.002862    323.69438   -511.91506            0   -10.718497            0            0            0            0            0            0 
10143000    567.85857    49157.057    301.67925   -501.07225      459.516    -41.55625    365.54454   -501.07225            0   -10.653395            0            0            0            0            0            0 
10144000    439.50549    50632.405    318.55592   -501.98113    485.22244   -16.758685    307.78171   -501.98113            0   -10.342972            0            0            0            0            0            0 
10145000    498.53979    50281.559    291.60817   -509.07269    444.17579   -64.896894    300.68481   -509.07269            0   -10.415141            0            0            0            0            0            0 
10146000     442.4964    48007.705    306.32368   -535.46444    466.59038   -68.874065    240.93675   -535.46444            0   -10.908448            0            0            0            0            0            0 
10147000    500.76291    52510.918    309.48744   -476.77184    471.40939   -5.3624473    378.13074   -476.77184            0   -9.9729649            0            0            0            0            0            0 
10148000    511.38647    51667.071    304.78325   -478.19867      464.244   -13.954668    371.38078   -478.19867            0   -10.135847            0            0            0            0            0            0 
10149000    458.48704     51402.03    296.32468   -493.11242    451.35995   -41.752464    301.95046   -493.11242            0    -10.18811            0            0            0            0            0            0 
10150000    519.32541    49585.951    311.27078   -505.72308    474.12576   -31.597322    343.95816   -505.72308            0   -10.561248            0            0            0            0            0            0 
10151000    417.07429    50482.086    299.70537   -500.50268     456.5094   -43.993287    263.06908   -500.50268            0    -10.37377            0            0            0            0            0            0 
10152000    361.17283    54193.389    291.37277   -474.07627    443.81723   -30.259031    255.19572   -474.07627            0   -9.6633475            0            0            0            0            0            0 
10153000    428.75511    51035.719    297.43976   -496.24054    453.05844   -43.182105    275.94188   -496.24054            0   -10.261236            0            0            0            0            0            0 
10154000    455.75331    51553.653    299.42578   -487.31571    456.08353   -31.232189     311.4292   -487.31571            0   -10.158146            0            0            0            0            0            0 
10155000     466.7094    52382.736    301.32738   -480.60847    458.98004   -21.628435     334.9135   -480.60847            0   -9.9973691            0            0            0            0            0            0 
10156000    504.22151    50882.427    303.00063   -495.17247    461.52872   -33.643751     340.5229   -495.17247            0   -10.292149            0            0            0            0            0            0 
10157000    500.48101    50607.904    308.86749   -494.18073    470.46509   -23.715638    345.67156   -494.18073            0   -10.347979            0            0            0            0            0            0 
10158000    571.19171    50588.189    327.82918   -491.03842    499.34741    8.3089883      429.721   -491.03842            0   -10.352012            0            0            0            0            0            0 
10159000    393.08571    49338.039    305.38016   -514.43858    465.15321   -49.285365    233.55738   -514.43858            0   -10.614316            0            0            0            0            0            0 
10160000    559.01647    50181.814    306.39697   -493.09767      466.702   -26.395668     382.7207   -493.09767            0   -10.435843            0            0            0            0            0            0 
10161000    642.56015    50352.085    305.86375   -478.26588    465.88981   -12.376074    459.47737   -478.26588            0   -10.400553            0            0            0            0            0            0 
10162000    470.26019    49169.899    303.18863   -513.37398    461.81508     -51.5589    285.66118   -513.37398            0   -10.650612            0            0            0            0            0            0 
10163000     332.6892    50134.131    284.39084   -514.79435     433.1824   -81.611948    161.63539   -514.79435            0   -10.445769            0            0            0            0            0            0 
10164000     445.8659    48725.714    293.71435   -516.72422    447.38391    -69.34031    247.49849   -516.72422            0   -10.747704            0            0            0            0            0            0 
10165000    515.47172    53541.643    298.39497   -462.38457    454.51341   -7.8711626     394.6349   -462.38457            0   -9.7809764            0            0            0            0            0            0 
10166000    494.17337    52164.158    314.18659    -480.4518    478.56711   -1.8846967      374.063    -480.4518            0    -10.03926            0            0            0            0            0            0 
10167000    417.44351    50063.397    291.74764   -516.02605    444.38823   -71.637819    233.14741   -516.02605            0   -10.460528            0            0            0            0            0            0 
10168000    543.36567    51376.799    299.41655   -477.77949    456.06947   -21.710012    385.42188   -477.77949            0   -10.193114            0            0            0            0            0            0 
10169000    544.58048    49138.205    295.11402   -513.02757    449.51588   -63.511683     326.7512   -513.02757            0   -10.657482            0            0            0            0            0            0 
10170000     499.3675    51392.661    308.26377   -490.13685     469.5455   -20.591355     353.6892   -490.13685            0   -10.189968            0            0            0            0            0            0 
10171000      404.459    52991.317    292.42504   -475.28711    445.42005   -29.867057    282.70856   -475.28711            0   -9.8825539            0            0            0            0            0            0 
10172000    597.64554    48233.456    310.23119   -519.42549    472.54226   -46.883226    373.52185   -519.42549            0   -10.857392            0            0            0            0            0            0 
10173000    507.27938    49228.357    313.36355   -505.21314    477.31345   -27.899687    336.29905   -505.21314            0   -10.637965            0            0            0            0            0            0 
10174000    482.76677    49919.009    286.18488   -503.18429    435.91507   -67.269222    284.19345   -503.18429            0   -10.490784            0            0            0            0            0            0 
10175000    576.84262    50232.723    296.88023   -492.94571    452.20617   -40.739546    381.85117   -492.94571            0   -10.425267            0            0            0            0            0            0 
10176000    529.07738    52554.683    314.42814   -472.02639    478.93504    6.9086462    412.42325   -472.02639            0     -9.96466            0            0            0            0            0            0 
10177000    582.88674      48101.2    299.03446   -522.46195    455.48747   -66.974476    341.92445   -522.46195            0   -10.887245            0            0            0            0            0            0 
10178000    399.00785    52378.764    291.38144    -483.8529    443.83044   -40.022458    264.77587    -483.8529            0   -9.9981272            0            0            0            0            0            0 
10179000    692.81798    49820.658    308.55519   -484.30871    469.98939   -14.319327    489.07057   -484.30871            0   -10.511494            0            0            0            0            0            0 
10180000    404.66988    52608.629    297.02797   -484.18511     452.4312   -31.753915    278.72617   -484.18511            0    -9.954442            0            0            0            0            0            0 
10181000    536.35039    51611.771    326.05022   -487.07443    496.63773    9.5632914    413.27677   -487.07443            0   -10.146708            0            0            0            0            0            0 
10182000    507.34483      50549.1    306.59639   -496.48325    467.00577   -29.477484    344.54057   -496.48325            0   -10.360017            0            0            0            0            0            0 
10183000    441.88373     52095.44    281.43761   -479.44873    428.68407    -50.76466    284.96029   -479.44873            0   -10.052503            0            0            0            0            0            0 
10184000    378.42129    53063.672    295.61236   -477.40342    450.27495   -27.128472     265.7239   -477.40342            0   -9.8690785            0            0            0            0            0            0 
10185000     649.3087    47443.222     291.1425   -516.08192    443.46649   -72.615435    376.64822   -516.08192            0   -11.038237            0            0            0            0            0            0 
10186000     512.0289    50545.598    300.21411   -491.82539    457.28432    -34.54107    342.90395   -491.82539            0   -10.360735            0            0            0            0            0            0 
10187000     438.8553    50443.352    278.77369   -502.58047    424.62639   -77.954077    244.89621   -502.58047            0   -10.381736            0            0            0            0            0            0 
10188000    405.21527    49306.775     295.9315   -517.80662    450.76107   -67.045545    224.34019   -517.80662            0   -10.621046            0            0            0            0            0            0 
10189000    545.35354     51116.39    293.90049   -480.79939    447.66744   -33.131943    373.41827   -480.79939            0   -10.245042            0            0            0            0            0            0 
10190000    564.83531    48222.982    318.65822   -519.22014    485.37827   -33.841876    363.39704   -519.22014            0    -10.85975            0            0            0            0            0            0 
10191000    442.04732    52163.336    285.47968   -472.99328    434.84092   -38.152359    298.13459   -472.99328            0   -10.039418            0            0            0            0            0            0 
10192000    553.27119    49570.976    298.74198   -504.00279    455.04198   -48.960811    351.02208   -504.00279            0   -10.564439            0            0            0            0            0            0 
10193000    541.87901    49054.354    306.72316   -503.80556    467.19886   -36.606702    351.05757   -503.80556            0   -10.675699            0            0            0            0            0            0 
10194000    487.30847    50737.249    303.61345   -496.03871    462.46216   -33.576549    327.00771   -496.03871            0   -10.321599            0            0            0            0            0            0 
10195000    476.28605    49136.998    325.42381   -517.19279    495.68357    -21.50922    319.80342   -517.19279            0   -10.657744            0            0            0            0            0            0 
10196000     519.9055    49530.116    309.51533   -501.50757    471.45188   -30.055694    345.49593   -501.50757            0   -10.573154            0            0            0            0            0            0 
10197000    617.81842    47621.104    298.34817   -513.94044    454.44212   -59.498322    369.57963   -513.94044            0   -10.997006            0            0            0            0            0            0 
10198000    471.72524    49362.678    310.86503   -514.55393    473.50773   -41.046198    298.55071   -514.55393            0   -10.609018            0            0            0            0            0            0 
10199000    672.79202    49303.879    303.32975   -497.34061    462.03004   -35.310567    448.45818   -497.34061            0    -10.62167            0            0            0            0            0            0 
10200000    562.05855    49707.568    316.64339   -500.82746    482.30929   -18.518174    388.93712   -500.82746            0   -10.535409            0            0            0            0            0            0 
10201000    618.70152    48298.301    288.88987   -507.86753     440.0353   -67.832228    367.96948   -507.86753            0   -10.842815            0            0            0            0            0            0 
10202000    482.25286    52186.235    304.12584   -480.18207    463.24263   -16.939434    350.09487   -480.18207            0   -10.035013            0            0            0            0            0            0 
10203000    481.21337    51000.545    309.36685   -490.73738    471.22571   -19.511676    338.41032   -490.73738            0   -10.268313            0            0            0            0            0            0 
10204000    543.08234    48373.484    295.52523   -515.44869    450.14224   -65.306456    317.82599   -515.44869            0   -10.825963            0            0            0            0            0            0 
10205000    525.39438    50000.623    296.00809   -497.65656    450.87773   -46.778827    336.34285   -497.65656            0    -10.47366            0            0            0            0            0            0 
10206000    609.38565    49023.045    312.43876   -508.83361    475.90483   -32.928784    402.75199   -508.83361            0   -10.682518            0            0            0            0            0            0 
10207000    584.35692    49462.482    301.57816   -498.85817    459.36202    -39.49615     382.0353   -498.85817            0   -10.587612            0            0            0            0            0            0 
10208000    418.56249    48811.917    318.17299   -525.06758    484.63917   -40.428408     257.5344   -525.06758            0   -10.728723            0            0            0            0            0            0 
10209000    366.31313    51184.368    292.93996   -494.65899    446.20436   -48.454624    224.98769   -494.65899            0   -10.231435            0            0            0            0            0            0 
10210000    483.15671     50976.43    291.62971   -487.82804     444.2086   -43.619441    315.57807   -487.82804            0    -10.27317            0            0            0            0            0            0 
10211000    605.99364    50099.703    309.07133   -489.38006    470.77558   -18.604478    424.16646   -489.38006            0   -10.452947            0            0            0            0            0            0 
10212000    488.09686     49605.39    285.88881   -503.75024    435.46411   -68.286132    284.82448   -503.75024            0    -10.55711            0            0            0            0            0            0 
10213000    516.31056    49031.931    317.06848   -518.92733    482.95679   -35.970539    333.23304   -518.92733            0   -10.680582            0            0            0            0            0            0 
10214000    675.47036     49628.66    319.95196    -492.6479    487.34888   -5.2990205    483.59501    -492.6479            0    -10.55216            0            0            0            0            0            0 
10215000     566.7996    50352.096    311.06334   -486.17755    473.80979   -12.367758    403.85227   -486.17755            0   -10.400551            0            0            0            0            0            0 
10216000    474.15466    49655.657     325.7906   -514.22657    496.24226   -17.984304    325.38751   -514.22657            0   -10.546423            0            0            0            0            0            0 
10217000     432.7805     48227.38    290.30377   -525.46246    442.18894   -83.273523    221.12129   -525.46246            0    -10.85876            0            0            0            0            0            0 
10218000    487.13931    51472.464    298.84471   -491.70922    455.19845   -36.510771     329.1716   -491.70922            0   -10.174169            0            0            0            0            0            0 
10219000     477.0668    49828.892    306.50483   -508.46139     466.8663    -41.59509    305.09091   -508.46139            0   -10.509757            0            0            0            0            0            0 
10220000    566.78606    49683.923    296.93352   -498.94842    452.28734   -46.661078     364.0259   -498.94842            0   -10.540423            0            0            0            0            0            0 
10221000    518.71546    50897.232    298.90672   -489.26201    455.29291   -33.969106    351.06504   -489.26201            0   -10.289156            0            0            0            0            0            0 
10222000    537.11298    49966.946    291.65413   -490.78392     444.2458   -46.538115    344.86506   -490.78392            0    -10.48072            0            0            0            0            0            0 
10223000    393.65485    48530.646    312.76637   -532.81578    476.40384   -56.411936    222.20503   -532.81578            0   -10.790904            0            0            0            0            0            0 
10224000    502.47757    48763.703    307.10093      -525.43    467.77427   -57.655725    299.69054      -525.43            0   -10.739331            0            0            0            0            0            0 
10225000    391.71859    51476.141    309.21663   -493.80308     470.9969    -22.80618    271.26743   -493.80308            0   -10.173442            0            0            0            0            0            0 
10226000    473.24936    51236.769    317.57297   -497.07506    483.72522   -13.349836    340.27899   -497.07506            0   -10.220971            0            0            0            0            0            0 
10227000    549.76013    50146.669    320.51458   -501.88033    488.20586   -13.674468    388.38585   -501.88033            0   -10.443157            0            0            0            0            0            0 
10228000    474.99635    49179.121    302.22291   -514.02374    460.34411   -53.679631     287.0006   -514.02374            0   -10.648615            0            0            0            0            0            0 
10229000    429.11987    52081.412    292.76986   -484.19883    445.94527   -38.253554    287.68615   -484.19883            0    -10.05521            0            0            0            0            0            0 
10230000    371.58758    51993.615    296.14852   -493.09579    451.09163   -42.004168    239.76087   -493.09579            0    -10.07219            0            0            0            0            0            0 
10231000    557.90844    49112.964    311.69129   -502.47296    474.76628   -27.706677    371.90205   -502.47296            0    -10.66296            0            0            0            0            0            0 
10232000    555.55493    49717.399    303.51112   -500.16222     462.3063   -37.855916    364.96433   -500.16222            0   -10.533325            0            0            0            0            0            0 
10233000    626.15012    49006.438    298.26438    -500.3634     454.3145   -46.048895      401.466    -500.3634            0   -10.686138            0            0            0            0            0            0 
10234000    586.82548    49763.981    304.66474   -495.19517    464.06348    -31.13169    394.76079   -495.19517            0   -10.523466            0            0            0            0            0            0 
10235000    535.34325    50237.433    305.83013   -485.65089     465.8386   -19.812295    372.41306   -485.65089            0   -10.424289            0            0            0            0            0            0 
10236000    543.32532    48888.226    295.22861   -511.49842    449.69043   -61.807987    325.57461   -511.49842            0   -10.711977            0            0            0            0            0            0 
10237000    398.24694    50493.462    295.31531   -501.95131    449.82249   -52.128821    241.13837   -501.95131            0   -10.371433            0            0            0            0            0            0 
10238000    496.15444    50117.368    317.01336   -495.92783    482.87283   -13.055008    349.58944   -495.92783            0   -10.449263            0            0            0            0            0            0 
10239000    565.23141    49152.969    309.87344   -506.53182    471.99735   -34.534471     370.6492   -506.53182            0   -10.654281            0            0            0            0            0            0 
10240000    387.22366    50439.215     302.6059   -510.45929    460.92748   -49.531814    235.31154   -510.45929            0   -10.382587            0            0            0            0            0            0 
10241000    459.54127    50747.184    293.09514   -501.69218    446.44073   -55.251442    284.85304   -501.69218            0   -10.319578            0            0            0            0            0            0 
10242000    497.34254    49480.094    289.04332   -503.82392    440.26903   -63.554896    295.33564   -503.82392            0   -10.583843            0            0            0            0            0            0 
10243000    444.98489    53272.765    290.94822   -471.00176    443.17057    -27.83119    317.89031   -471.00176            0   -9.8303429            0            0            0            0            0            0 
10244000    413.63346    50363.349    298.47217   -508.39437      454.631   -53.763368     250.0495   -508.39437            0   -10.398227            0            0            0            0            0            0 
10245000    434.05364    51550.353    281.41874   -482.94199    428.65532   -54.286661    272.03878   -482.94199            0   -10.158797            0            0            0            0            0            0 
10246000    548.90826    48879.409    304.61378   -508.65515    463.98587   -44.669286    346.62329   -508.65515            0   -10.713909            0            0            0            0            0            0 
10247000    480.15368    51517.924    288.44088   -485.96434     439.3514    -46.61294    314.14384   -485.96434            0   -10.165191            0            0            0            0            0            0 
10248000    481.74192    50411.018    285.98569   -497.87352    435.61167   -62.261843    291.91144   -497.87352            0   -10.388395            0            0            0            0            0            0 
10249000    477.98689    49653.654    312.50075    -506.3948    475.99925   -30.395552    315.73751    -506.3948            0   -10.546848            0            0            0            0            0            0 
10250000    558.76321    47388.624    288.28923   -530.25808    439.12041   -91.137672    295.03167   -530.25808            0   -11.050955            0            0            0            0            0            0 
10251000    395.01755    51838.604    292.49993   -498.00344    445.53412    -52.46932    246.16903   -498.00344            0   -10.102308            0            0            0            0            0            0 
10252000    611.87868    48916.917    303.19459   -504.59749    461.82417    -42.77332     393.7428   -504.59749            0   -10.705694            0            0            0            0            0            0 
10253000    408.05031    52100.763    290.75026    -480.3878    442.86903   -37.518774    272.53262    -480.3878            0   -10.051476            0            0            0            0            0            0 
10254000     440.9281    51750.683    290.70361   -484.16319    442.79797   -41.365212    291.41673   -484.16319            0   -10.119471            0            0            0            0            0            0 
10255000    391.65505     50593.28    284.55335   -497.87159    433.42993   -64.441656    224.54146   -497.87159            0    -10.35097            0            0            0            0            0            0 
10256000    443.15217    52234.292    269.12553   -473.05665    409.93038   -63.126272    274.45977   -473.05665            0    -10.02578            0            0            0            0            0            0 
10257000    662.65024    49166.815    301.46877   -491.89087    459.19541   -32.695468    442.45627   -491.89087            0   -10.651281            0            0            0            0            0            0 
10258000     545.3735     50509.46    312.91409   -491.45495    476.62884   -14.826114    386.91164   -491.45495            0   -10.368148            0            0            0            0            0            0 
10259000    675.27398     46816.47    300.26865    -525.9642    457.36738   -68.596816    392.46013    -525.9642            0   -11.186011            0            0            0            0            0            0 
10260000     368.7378    53302.929    291.43036    -472.9704    443.90496   -29.065439    257.57972    -472.9704            0     -9.82478            0            0            0            0            0            0 
10261000    405.72948    50943.899    282.22528   -497.55448    429.88384   -67.670641    233.77196   -497.55448            0    -10.27973            0            0            0            0            0            0 
10262000    425.45929     49919.68    304.52523   -508.30684    463.85098   -44.455858    265.29013   -508.30684            0   -10.490643            0            0            0            0            0            0 
10263000    470.73895     49684.27    302.49838    -500.5086     460.7637   -39.744907    301.34977    -500.5086            0   -10.540349            0            0            0            0            0            0 
10264000    450.78495     50501.67     304.8565   -502.61327    464.35557   -38.257697     293.7522   -502.61327            0   -10.369747            0            0            0            0            0            0 
10265000    445.55607    51242.788    306.54107   -493.59805    466.92149   -26.676561    306.29796   -493.59805            0   -10.219771            0            0            0            0            0            0 
10266000    520.29094    48556.637    309.47155   -511.26815    471.38519   -39.882951    328.56042   -511.26815            0   -10.785128            0            0            0            0            0            0 
10267000    356.14988    51597.496     297.1967   -490.16769    452.68822   -37.479472    230.52209   -490.16769            0   -10.149515            0            0            0            0            0            0 
10268000    524.18156    49429.082    300.83204   -502.44806    458.22554   -44.222513    333.64553   -502.44806            0   -10.594766            0            0            0            0            0            0 
10269000    399.56369    49193.287    292.37074   -521.30136    445.33734   -75.964019    210.69641   -521.30136            0   -10.645549            0            0            0            0            0            0 
10270000    558.02252     49792.97    304.01561   -496.56108    463.07473   -33.486355     371.7381   -496.56108            0   -10.517339            0            0            0            0            0            0 
10271000    459.21215    51633.424    295.81178   -480.79476    450.57871   -30.216054    315.58012   -480.79476            0   -10.142452            0            0            0            0            0            0 
10272000     617.4739    47201.483    316.91449    -533.4476    482.72223   -50.725371    374.33453    -533.4476            0   -11.094769            0            0            0            0            0            0 
10273000     447.9866    50729.767    289.76861    -498.9779    441.37379    -57.60411    273.83502    -498.9779            0   -10.323121            0            0            0            0            0            0 
10274000    507.59388    49599.617    300.45143   -506.46849    457.64579   -48.822699    318.35017   -506.46849            0   -10.558339            0            0            0            0            0            0 
10275000    542.87676      49996.7    290.60901   -498.19229    442.65388   -55.538405     340.3005   -498.19229            0   -10.474482            0            0            0            0            0            0 
10276000    569.74594    49823.575    301.70572   -500.28699    459.55632   -40.730673    373.26139   -500.28699            0   -10.510879            0            0            0            0            0            0 
10277000    455.92928    51503.849    301.01446   -480.57538    458.50339   -22.071988    320.39054   -480.57538            0   -10.167969            0            0            0            0            0            0 
10278000    441.66508    49075.175     297.4355   -519.17628    453.05195   -66.124332    249.98026   -519.17628            0    -10.67117            0            0            0            0            0            0 
10279000    707.42224    48605.501    300.21778   -502.17857     457.2899   -44.888676    456.57563   -502.17857            0   -10.774285            0            0            0            0            0            0 
10280000    582.17909    49253.671    298.26732    -508.5978    454.31898   -54.278826    363.90872    -508.5978            0   -10.632498            0            0            0            0            0            0 
10281000    475.94557    51478.644    301.27437   -484.26179     458.8993   -25.362494    331.95993   -484.26179            0   -10.172947            0            0            0            0            0            0 
10282000    428.06236     50788.47    302.68475    -492.5568    461.04758   -31.509217    285.55561    -492.5568            0    -10.31119            0            0            0            0            0            0 
10283000    627.09109    48952.305    302.71686   -504.87934    461.09649   -43.782854    403.90949   -504.87934            0   -10.697955            0            0            0            0            0            0 
10284000    503.44162    48403.773     304.7131   -516.36569    464.13714   -52.228552    303.16064   -516.36569            0   -10.819189            0            0            0            0            0            0 
10285000    557.95302    51088.538    306.44431   -477.83267    466.77411   -11.058566    404.65768   -477.83267            0   -10.250627            0            0            0            0            0            0 
10286000    541.92675    49558.801    297.40401   -503.40018    453.00399   -50.396194     341.2891   -503.40018            0   -10.567034            0            0            0            0            0            0 
10287000    539.49244    50111.236    308.81946   -502.89519    470.39193   -32.503265    361.76912   -502.89519            0   -10.450541            0            0            0            0            0            0 
10288000     475.5309    53709.815    289.77644   -454.90672    441.38571   -13.521012    358.96356   -454.90672            0   -9.7503509            0            0            0            0            0            0 
10289000    596.57693    49499.641    337.83064   -509.73946    514.58159    4.8421302    435.51191   -509.73946            0   -10.579663            0            0            0            0            0            0 
10290000    572.29383    48203.238    300.84532   -514.70459    458.24577   -56.458818    345.86076   -514.70459            0   -10.864199            0            0            0            0            0            0 
10291000    537.52699    49067.853    291.99518   -504.03392    444.76529   -59.268626      325.388   -504.03392            0   -10.672763            0            0            0            0            0            0 
10292000    464.38318    50613.216    278.54638   -494.56595    424.28016   -70.285789    272.49487   -494.56595            0   -10.346893            0            0            0            0            0            0 
10293000    544.93384     49864.49    305.59786   -508.35974    465.48481   -42.874931    353.41319   -508.35974            0   -10.502254            0            0            0            0            0            0 
10294000    540.07777    50107.395    327.26739   -506.40236     498.4917   -7.9106534    386.75926   -506.40236            0   -10.451342            0            0            0            0            0            0 
10295000    508.81884    49197.462    302.40121   -509.15051    460.61569    -48.53482    316.53991   -509.15051            0   -10.644646            0            0            0            0            0            0 
10296000    460.77183    50414.919    297.96577   -499.92297    453.85965   -46.063319    292.71911   -499.92297            0   -10.387591            0            0            0            0            0            0 
10297000    529.67141    51068.342    310.49589    -479.4013    472.94545   -6.4558442     388.0325    -479.4013            0   -10.254681            0            0            0            0            0            0 
10298000    528.75647    50424.494    293.39289   -491.78397    446.89428   -44.889694    343.95227   -491.78397            0   -10.385618            0            0            0            0            0            0 
10299000    459.56344    49244.424    301.93058   -518.95769    459.89883   -59.058867    270.99014   -518.95769            0   -10.634494            0            0            0            0            0            0 
10300000    393.63546    49560.707    280.78666   -521.19587    427.69254   -93.503337    191.01325   -521.19587            0   -10.566628            0            0            0            0            0            0 
10301000    562.04945     48850.15     279.4261    -501.7825    425.62014   -76.162359    324.25816    -501.7825            0   -10.720326            0            0            0            0            0            0 
10302000    428.42385    50717.542    311.93505   -502.06447    475.13757   -26.926893    289.96251   -502.06447            0    -10.32561            0            0            0            0            0            0 
10303000    487.81164    50558.659    293.32352   -490.78017     446.7886   -43.991571    315.69448   -490.78017            0   -10.358058            0            0            0            0            0            0 
10304000    460.05709    53205.432    273.94824   -462.47019     417.2763   -45.193883    311.78587   -462.47019            0   -9.8427835            0            0            0            0            0            0 
10305000    401.76527    53450.989    288.95561   -470.73534    440.13544     -30.5999    282.58732   -470.73534            0   -9.7975651            0            0            0            0            0            0 
10306000    454.50222    50000.984    287.41848   -511.15605    437.79409   -73.361958      258.067   -511.15605            0   -10.473585            0            0            0            0            0            0 
10307000    511.29565    50345.307     283.0937   -494.38544    431.20661   -63.178826    312.23216   -494.38544            0   -10.401954            0            0            0            0            0            0 
10308000    498.97094    48565.305    285.12456    -523.6742        434.3   -89.374191    264.03453    -523.6742            0   -10.783203            0            0            0            0            0            0 
10309000    458.64925    49607.595    303.12412   -509.39552    461.71682   -47.678704    284.14297   -509.39552            0    -10.55664            0            0            0            0            0            0 
10310000    526.76628    52241.341    294.73829   -459.57182    448.94358   -10.628242    390.70781   -459.57182            0   -10.024428            0            0            0            0            0            0 
10311000    656.12996    48430.183     310.0205   -511.18369    472.22135   -38.962343    424.46523   -511.18369            0   -10.813289            0            0            0            0            0            0 
10312000    613.87402    48145.551    304.79712   -517.97979    464.26512   -53.714672    377.31911   -517.97979            0   -10.877216            0            0            0            0            0            0 
10313000     472.1542    51256.117    304.77981   -495.23262    464.23876   -30.993859    321.94986   -495.23262            0   -10.217113            0            0            0            0            0            0 
10314000    471.21411    49700.141    274.83518    -505.0062    418.62727   -86.378929    255.16911    -505.0062            0   -10.536983            0            0            0            0            0            0 
10315000    435.46002    50306.249    298.68515    -503.8841     454.9554   -48.928696     270.5531    -503.8841            0    -10.41003            0            0            0            0            0            0 
10316000     651.2065    48034.253    311.33697   -522.22961    474.22659   -48.003022    408.18687   -522.22961            0   -10.902419            0            0            0            0            0            0 
10317000    450.54306    51995.748    294.33708   -483.15438    448.33245    -34.82193    306.82697   -483.15438            0   -10.071776            0            0            0            0            0            0 
10318000    563.26846     48462.35    302.70106    -518.5161    461.07242   -57.443678    340.65964    -518.5161            0   -10.806111            0            0            0            0            0            0 
10319000    270.57583    52379.762    298.94021   -498.65048    455.34391   -43.306572    163.38769   -498.65048            0   -9.9979367            0            0            0            0            0            0 
10320000    410.85544    51223.108    293.28855   -495.36937    446.73534   -48.634026    258.28998   -495.36937            0   -10.223697            0            0            0            0            0            0 
10321000    543.50851    49813.823    299.41139   -498.96195    456.06161   -42.900337    351.94963   -498.96195            0   -10.512936            0            0            0            0            0            0 
10322000    442.29432    50682.454    283.04862    -494.2678    431.13794   -63.129863    263.79269    -494.2678            0   -10.332758            0            0            0            0            0            0 
10323000    467.87428    49101.602    292.55945    -513.8855    445.62478    -68.26072    266.78241    -513.8855            0   -10.665427            0            0            0            0            0            0 
10324000    438.69737    48822.552    313.44393   -518.90264    477.43589   -41.466748    270.89756   -518.90264            0   -10.726386            0            0            0            0            0            0 
10325000    410.33146    51627.805    302.34287   -493.86863    460.52682   -33.341808    275.61258   -493.86863            0   -10.143556            0            0            0            0            0            0 
10326000    550.46132    50309.099    306.59237   -493.75936    466.99963   -26.759732    377.11737   -493.75936            0    -10.40944            0            0            0            0            0            0 
10327000    567.50198    50680.146    297.89343   -482.59793    453.74946   -28.848472    390.60242   -482.59793            0   -10.333229            0            0            0            0            0            0 
10328000    707.76456    49398.162    317.90604   -487.13431    484.23255   -2.9017694    506.98705   -487.13431            0   -10.601397            0            0            0            0            0            0 
10329000     500.0733     50202.54    305.93523   -496.04205    465.99869   -30.043353    336.08659   -496.04205            0   -10.431535            0            0            0            0            0            0 
10330000    576.13598    49186.885    300.04794   -502.13478     457.0312   -45.103582    368.18196   -502.13478            0   -10.646934            0            0            0            0            0            0 
10331000    398.51749    50391.918    308.54632   -505.06951    469.97589   -35.093618    257.78264   -505.06951            0   -10.392332            0            0            0            0            0            0 
10332000    442.69762    50402.321    288.11075   -500.75641    438.84854   -61.907873    263.50416   -500.75641            0   -10.390187            0            0            0            0            0            0 
10333000    450.26422    50429.121    299.11521   -500.89943    455.61048   -45.288952    285.86102   -500.89943            0   -10.384665            0            0            0            0            0            0 
10334000    544.26893    47524.578    302.30768   -528.36713    460.47323   -67.893896    309.33739   -528.36713            0   -11.019341            0            0            0            0            0            0 
10335000     541.2745    49603.794     299.7944    -500.2234    456.64501   -43.578391    347.99065    -500.2234            0   -10.557449            0            0            0            0            0            0 
10336000    566.31801    48958.272    300.35016   -503.81831    457.49154   -46.326773    358.02779   -503.81831            0   -10.696651            0            0            0            0            0            0 
10337000    412.65289    50916.531    298.31639   -500.48445    454.39372   -46.090731    260.33102   -500.48445            0   -10.285256            0            0            0            0            0            0 
10338000    622.99524    46492.108    300.91858   -538.14859    458.35736   -79.791225    342.62429   -538.14859            0   -11.264052            0            0            0            0            0            0 
10339000    517.71129     48573.07    296.52936   -519.29838    451.67173   -67.626653    299.11402   -519.29838            0   -10.781479            0            0            0            0            0            0 
10340000    514.84233      51110.1     291.7767   -484.19113     444.4325   -39.758627    343.99887   -484.19113            0   -10.246302            0            0            0            0            0            0 
10341000    600.69979    48498.426    298.97377   -514.03512    455.39503   -58.640086    366.23475   -514.03512            0   -10.798073            0            0            0            0            0            0 
10342000    521.38232    51414.468    313.15062   -484.44194    476.98912    -7.452814    383.49387   -484.44194            0   -10.185646            0            0            0            0            0            0 
10343000    673.97336    50509.838     307.0164   -482.87245    467.64552   -15.226932    481.24488   -482.87245            0    -10.36807            0            0            0            0            0            0 
10344000    445.77153    51532.231    306.58487   -494.99413    466.98822   -28.005906    307.01134   -494.99413            0   -10.162369            0            0            0            0            0            0 
10345000    404.79984     50036.73    293.32167   -518.44258    446.78579   -71.656794    223.73956   -518.44258            0   -10.466103            0            0            0            0            0            0 
10346000    469.42368    51902.766    297.87038   -481.16292    453.71436   -27.448562    327.88103   -481.16292            0    -10.08982            0            0            0            0            0            0 
10347000    567.93941    51194.839    300.76777   -475.69659    458.12765   -17.568938    406.46837   -475.69659            0   -10.229343            0            0            0            0            0            0 
10348000    585.81371    51339.093    304.65355   -472.36442    464.04644   -8.3179748    430.29715   -472.36442            0     -10.2006            0            0            0            0            0            0 
10349000     584.8141    50022.563    322.43028   -499.86359    491.12385   -8.7397394    417.89838   -499.86359            0   -10.469067            0            0            0            0            0            0 
10350000     481.1315     51670.56     301.2529   -480.35851    458.86659   -21.491919    341.07055   -480.35851            0   -10.135163            0            0            0            0            0            0 
10351000    503.19478    49575.915    310.11847   -501.42064    472.37057   -29.050073    334.76673   -501.42064            0   -10.563386            0            0            0            0            0            0 
10352000    529.04338    51457.015    317.87688   -482.85526    484.18814    1.3328823    398.35231   -482.85526            0   -10.177224            0            0            0            0            0            0 
10353000     424.7133    52087.777     296.9023   -489.30915    452.23979   -37.069361    285.56274   -489.30915            0   -10.053982            0            0            0            0            0            0 
[...]
14939000    494.42445    51911.875    299.31875   -480.69568    455.92051   -24.775174    349.54441   -480.69568            0   -10.088049            0            0            0            0            0            0 
14940000    451.78299    50372.715    304.40327   -499.07983    463.66521   -35.414619    296.48069   -499.07983            0   -10.396294            0            0            0            0            0            0 
14941000    530.39826    49568.211     288.3666   -499.70632    439.23826   -60.468057    322.95765   -499.70632            0   -10.565028            0            0            0            0            0            0 
14942000    505.90038    50770.812    303.52974   -493.73926    462.33466   -31.404592    343.18439   -493.73926            0   -10.314776            0            0            0            0            0            0 
14943000    533.00165    50529.555    299.19406   -491.72798    455.73058   -35.997406    356.78309   -491.72798            0   -10.364024            0            0            0            0            0            0 
14944000    584.77511    50544.055    295.80376   -485.41824    450.56649   -34.851754    396.20539   -485.41824            0   -10.361051            0            0            0            0            0            0 
14945000    509.87467    51276.845     299.7378   -480.09817     456.5588   -23.539364     357.7552   -480.09817            0   -10.212983            0            0            0            0            0            0 
14946000    562.30519    48625.915    303.85359   -516.83093    462.82795   -54.002979    344.76085   -516.83093            0   -10.769762            0            0            0            0            0            0 
14947000    439.68929    51148.189    289.59967   -494.22956    441.11647   -53.113092    274.87044   -494.22956            0   -10.238672            0            0            0            0            0            0 
14948000    457.97596    47836.705    303.51771   -530.54616    462.31634   -68.229825    251.27677   -530.54616            0   -10.947442            0            0            0            0            0            0 
14949000    451.20591    50752.196    312.01213   -501.73508    475.25498   -26.480095    307.48841   -501.73508            0   -10.318559            0            0            0            0            0            0 
14950000    536.37724    49393.773    289.87255   -503.06238     441.5321   -61.530272    324.85311   -503.06238            0   -10.602339            0            0            0            0            0            0 
14951000    458.79117    50155.516    297.64372    -505.8819    453.36911   -52.512794    283.07769    -505.8819            0   -10.441315            0            0            0            0            0            0 
14952000    469.48785    50305.225    301.98246   -502.42153    459.97785   -42.443674    301.99614   -502.42153            0   -10.410242            0            0            0            0            0            0 
14953000    503.08925    48844.651    312.89603   -514.65378    476.60133   -38.052448    320.32274   -514.65378            0   -10.721533            0            0            0            0            0            0 
14954000    534.79191    50062.666    295.91354   -487.51012    450.73371   -36.776413    353.68192   -487.51012            0    -10.46068            0            0            0            0            0            0 
14955000    435.58926    50426.854    297.73684    -502.2075    453.51096    -48.69654    271.64623    -502.2075            0   -10.385132            0            0            0            0            0            0 
14956000    498.16385    49393.805    300.41768    -507.9096    457.59439   -50.315211     308.5411    -507.9096            0   -10.602333            0            0            0            0            0            0 
14957000    504.93417    51281.072    287.17995   -485.76685    437.43077   -48.336083    329.29501   -485.76685            0   -10.212141            0            0            0            0            0            0 
14958000    410.62804    52624.147    301.59313   -484.28029    459.38482   -24.895466    290.24891   -484.28029            0   -9.9515065            0            0            0            0            0            0 
14959000    581.79657    48862.048    310.83751    -503.1663    473.46581   -29.700489    384.88941    -503.1663            0   -10.717716            0            0            0            0            0            0 
14960000    352.67171    50590.757    295.83924   -502.10981    450.62053   -51.489272    208.71696   -502.10981            0   -10.351487            0            0            0            0            0            0 
14961000    516.99606    49405.131    321.99769   -510.07038    490.46494   -19.605444    352.90219   -510.07038            0   -10.599902            0            0            0            0            0            0 
14962000    560.00419    51627.198    286.61298   -468.72109    436.56715   -32.153936    389.48986   -468.72109            0   -10.143676            0            0            0            0            0            0 
14963000    567.54916    48604.378    307.18582   -509.58469    467.90357   -41.681119    360.62326   -509.58469            0   -10.774535            0            0            0            0            0            0 
14964000     635.6637    51064.452    302.38831   -473.18192    460.59604   -12.585888    460.80728   -473.18192            0   -10.255462            0            0            0            0            0            0 
14965000    575.70549    49502.757     302.0672   -496.10918    460.10693   -36.002249    379.62656   -496.10918            0   -10.578998            0            0            0            0            0            0 
14966000    628.54761     48422.61    290.61332   -505.13837    442.66045   -62.477914    381.39869   -505.13837            0    -10.81498            0            0            0            0            0            0 
14967000    437.74819    49763.604    288.33876   -502.54155    439.19586   -63.345692    254.35055   -502.54155            0   -10.523545            0            0            0            0            0            0 
14968000    449.28769    48194.891    291.27704   -531.62654    443.67142   -87.955122    227.83709   -531.62654            0    -10.86608            0            0            0            0            0            0 
14969000    469.93492    51051.422    278.54877   -485.55746     424.2838    -61.27366    288.60822   -485.55746            0   -10.258079            0            0            0            0            0            0 
14970000    486.66987    50074.921    314.50706   -502.55425    479.05524   -23.499006    331.91179   -502.55425            0    -10.45812            0            0            0            0            0            0 
14971000    575.22841    49060.959    296.62879   -503.36902    451.82318   -51.545839    360.03226   -503.36902            0   -10.674262            0            0            0            0            0            0 
14972000    492.07671     49753.27    315.89421   -509.99444    481.16814   -28.826297    328.22476   -509.99444            0   -10.525731            0            0            0            0            0            0 
14973000    577.26409    50229.536    300.44316   -495.93411     457.6332   -38.300905    384.57174   -495.93411            0   -10.425928            0            0            0            0            0            0 
14974000    453.69886    51479.084    298.49485   -493.21502    454.66555   -38.549472    302.07386   -493.21502            0   -10.172861            0            0            0            0            0            0 
14975000     452.6801     50721.36     280.4139    -495.8429    427.12475   -68.718152    266.13792    -495.8429            0   -10.324833            0            0            0            0            0            0 
14976000    478.06355    50892.732    299.61076   -496.35244     456.3653   -39.987141    314.84038   -496.35244            0   -10.290065            0            0            0            0            0            0 
14977000    333.66614    49842.472    279.19846   -519.10377     425.2734   -93.830374    148.71199   -519.10377            0   -10.506893            0            0            0            0            0            0 
14978000    614.95369    50982.718      302.227    -474.0917    460.35034   -13.741368    443.49554    -474.0917            0   -10.271903            0            0            0            0            0            0 
14979000    465.64905    50600.737    290.65291   -497.47052    442.72075   -54.749768    288.88054   -497.47052            0   -10.349445            0            0            0            0            0            0 
14980000    532.85008    51947.212    281.51041   -477.26526    428.79495   -48.470308    355.21521   -477.26526            0   -10.081187            0            0            0            0            0            0 
14981000    534.51625     49776.44     290.9676   -500.58722    443.20009   -57.387136     330.6387   -500.58722            0   -10.520832            0            0            0            0            0            0 
14982000    420.03376    50689.213    287.83425   -501.10148    438.42739   -62.674093    247.83594   -501.10148            0    -10.33138            0            0            0            0            0            0 
14983000     447.7818    50807.475    293.82532   -492.25077    447.55294   -44.697826    287.09725   -492.25077            0   -10.307333            0            0            0            0            0            0 
14984000    507.81951    50382.905    284.98569   -492.12795    434.08848   -58.039468    315.09767   -492.12795            0   -10.394191            0            0            0            0            0            0 
14985000    499.11595    48731.727    307.77725   -517.65552    468.80444   -48.851085    305.87174   -517.65552            0   -10.746378            0            0            0            0            0            0 
14986000    486.73229    52235.989    286.74471   -475.08719     436.7678   -38.319393    332.47732   -475.08719            0   -10.025455            0            0            0            0            0            0 
14987000    551.08535    51301.553    284.16544   -478.34222    432.83908   -45.503147    366.80818   -478.34222            0   -10.208064            0            0            0            0            0            0 
14988000    458.37992    50338.646    300.33798   -496.99282    457.47299   -39.519828    296.99407   -496.99282            0    -10.40333            0            0            0            0            0            0 
14989000    520.01574    47818.154    306.13775   -533.41876    466.30716   -67.111597    295.53632   -533.41876            0   -10.951689            0            0            0            0            0            0 
14990000    460.76479    51482.178    293.35818   -479.34178     446.8414   -32.500382    313.44862   -479.34178            0   -10.172249            0            0            0            0            0            0 
14991000    637.12122    49617.901    291.35598   -489.92045    443.79167   -46.128779    414.90882   -489.92045            0   -10.554448            0            0            0            0            0            0 
14992000    600.63697     50162.68    315.65771   -491.63345    480.80792    -10.82553     428.5832   -491.63345            0   -10.439824            0            0            0            0            0            0 
14993000    543.56194    50108.899    320.42719   -496.18369    488.07275   -8.1109487    389.11699   -496.18369            0   -10.451029            0            0            0            0            0            0 
14994000    499.32119    47126.806    266.60777   -529.55922    406.09533   -123.46388    219.71764   -529.55922            0    -11.11235            0            0            0            0            0            0 
14995000    485.80016    52028.246    296.87676   -488.74438    452.20088   -36.543497    332.07127   -488.74438            0   -10.065485            0            0            0            0            0            0 
14996000    503.87207    52479.561    291.64994   -472.77377    444.23943   -28.534339    357.10948   -472.77377            0   -9.9789239            0            0            0            0            0            0 
14997000    543.63685    49841.464    317.08876   -499.85201    482.98768   -16.864325    378.29803   -499.85201            0   -10.507106            0            0            0            0            0            0 
14998000    447.30937     51970.82    296.21063   -480.28497    451.18624   -29.098731    309.93542   -480.28497            0   -10.076607            0            0            0            0            0            0 
14999000    464.94179    52818.724    292.07741   -470.20009    444.89054   -25.309548    332.83833   -470.20009            0   -9.9148465            0            0            0            0            0            0 
15000000    675.96784    48514.588    325.44785   -502.18381    495.72019   -6.4636165    471.80763   -502.18381            0   -10.794476            0            0            0            0            0            0 
Loop time of 1671.7 on 8 procs for 5000000 steps with 512 atoms

Pair  time (%) = 923.683 (55.254)
Bond  time (%) = 0.451359 (0.027)
Neigh time (%) = 31.839 (1.90459)
Comm  time (%) = 552.337 (33.0403)
Outpt time (%) = 0.253946 (0.0151909)
Other time (%) = 163.14 (9.75889)

Nlocal:    64 ave 69 max 60 min
Histogram: 2 0 2 0 0 1 1 0 1 1
Nghost:    1421 ave 1454 max 1391 min
Histogram: 2 1 0 1 0 0 1 0 2 1
Neighs:    6836.5 ave 7444 max 6250 min
Histogram: 2 0 0 2 0 0 2 0 1 1

Total # of neighbors = 54692
Ave neighs/atom = 106.82
Ave special neighs/atom = 0
Neighbor list builds = 80255
Dangerous builds = 0

Averages
Group Pressure(MPa) Volume(m3) Temperature(K) PE(J) KE(J) ET(J) ET^2(J) H(J) H^2(J^2) V^2(m6) V*H(m3*J) Hconf(J) Uext*Hconf(J^2) V*Hconf(m3*J) Uext(J)
Block1 50.051570257667762576 5.0255480863527713172e-26 299.99530456677734946 -3.4683330078350758431e-18 3.1747563061618597874e-18 -2.9357670167321080756e-19 1.1076039750291775065e-37 2.2178622724270889483e-18 5.1007134849015751026e-36 2.5272757799171687692e-51 1.1145953886820341862e-43 -9.5689403373478085393e-19 3.3368742028030508083e-36 -4.8091699560054842712e-44 -3.4683330078350758431e-18
Block2 49.953234345152132789 5.0277568790057258897e-26 299.54733826218790682 -3.4652505880384434379e-18 3.170015619128460483e-18 -2.9523496890997968085e-19 1.1085697269568128758e-37 2.2119946450419106892e-18 5.0816862894672587982e-36 2.5295116232717821529e-51 1.111919919011943807e-43 -9.5802097408655075675e-19 3.3377057129365166588e-36 -4.8188875752262945236e-44 -3.4652505880384434379e-18
Block3 50.322350913821082941 5.0240609732124545744e-26 300.02207625882789443 -3.4681123300542801336e-18 3.1750396225900605254e-18 -2.9307270746422095631e-19 1.0982730395903958922e-37 2.2314244815500767611e-18 5.1527810301139685695e-36 2.5256910433011616766e-51 1.1211006643796915359e-43 -9.4361514103997952728e-19 3.2898958443942548787e-36 -4.7412380315301932424e-44 -3.4681123300542801336e-18
Block4 50.098778797292482068 5.0252063029704815537e-26 300.77202871224437786 -3.4687485199423394476e-18 3.1829761344106147065e-18 -2.8577238553171973372e-19 1.0397483316739595497e-37 2.2278910113871190247e-18 5.1369921800375634175e-36 2.5268440404787355929e-51 1.1194010933661608689e-43 -9.5508512302349722251e-19 3.3292558449083186717e-36 -4.8008034037955889005e-44 -3.4687485199423394476e-18
Block5 50.16569612544531509 5.022409831332353144e-26 300.26708644226272327 -3.4691497068759212475e-18 3.1776324885886045678e-18 -2.9151721828731735382e-19 1.081422266557736454e-37 2.2239434510262255113e-18 5.1286107918057232066e-36 2.5240933795523073722e-51 1.1167837545567438863e-43 -9.536890375623769379e-19 3.3260998698960068522e-36 -4.7912451402174082207e-44 -3.4691497068759212475e-18
Ave_blocks 50.118326087875757935 5.024996414574757181e-26 300.12076684845999353 -3.4679188305492114827e-18 3.176084034175920091e-18 -2.9183479637328970645e-19 1.0871234679616165809e-37 2.222623172286484418e-18 5.1201567552652171507e-36 2.5266831733042311128e-51 1.1167601639993148967e-43 -9.5346086188943721375e-19 3.3239662949876299748e-36 -4.7922688213549934334e-44 -3.4679188305492114827e-18
Stdev_blocks 0.1232588909675815525 1.7626129567294324738e-29 0.39996309802566942793 1.3807203916493096796e-21 4.2326841399157584201e-21 3.2551962237284423238e-21 2.5614891675977918794e-39 6.9654586116640080046e-21 2.5601808809714914405e-38 1.7926819955008071999e-54 3.2841812282271449376e-46 5.1421746291760485471e-21 1.7599504388671393613e-38 2.7100682429727218712e-46 1.3807203916493096796e-21






Properties
Group rho(kg/m3) Cp(J/K) Cp_conf(J/K) Cp_id(J/K) Cp2(J/K) kT(1/Pa) aP(1/K) aP2(1/K) Cv(J/K) uJT(K/Pa) sos(m/s) Cv2(J/K) uJT2(K/Pa) sos2(m/s) CvNVT(J/K)
Block1 271.39794358387604234 1.4631294798834668594e-19 7.3534305195457335105e-21 3.041757356958672518e-20 3.7771004089132458691e-20 7.9865727701752156635e-09 -3.1407261713969920807e-06 -4.0511994888526880229e-05 1.463129293675789151e-19 -3.438030087235637611e-07 679.22947658163116103 3.7767905923047703456e-20 -1.34670119224222288e-06 679.25729196622626205 1.9776440504084130382e-20
Block2 271.27871312022369921 1.52373546920277279e-19 6.5151721176164680388e-21 3.0403286691290604128e-20 3.6918458808907072167e-20 8.0684722144042947119e-09 -0.00034873212794146729717 -0.00035177130290785978226 1.5214654352881239383e-19 -3.6443105957068248422e-07 676.42590463066608208 3.6687481540668096899e-20 -1.5053560326861546895e-06 678.04625120044340747 1.9125427178182048921e-20
Block3 271.47827689398326356 1.3962861953008107102e-19 6.6923474065839504784e-21 3.0418428875828565698e-20 3.7110776282412519186e-20 7.5545764008967112162e-09 3.1069757617882096004e-05 -7.3357951753643733483e-05 1.3962669345272058916e-19 -3.564619228444105209e-07 698.28127235131819361 3.7100039049113748515e-20 -1.3835969145979819712e-06 698.37749401757105261 1.9260002777553707863e-20
Block4 271.4164023896468052 1.3890756646818632661e-19 5.4633395092825065726e-21 3.0442456298766985299e-20 3.5905795808049494881e-20 7.5437246252906314671e-09 -0.00025508475560393970016 -0.00020770179174990291296 1.3877719741109807047e-19 -3.8952176074793458081e-07 699.18634335222350273 3.5819361531686583667e-20 -1.4869842846636717751e-06 699.7008476621454065 1.7861648658167510572e-20
Block5 271.56752670982285736 1.4675987872209321147e-19 6.5023528751658228633e-21 3.0426264260634623655e-20 3.6928617135800446518e-20 7.8445918632952010575e-09 -0.00027478237329419741893 -0.00022840190314991730414 1.4661472530446932011e-19 -3.7045542586368939758e-07 685.47367621583862274 3.6828329137764134954e-20 -1.4533050569117295825e-06 686.06682520789695445 1.8605387285743830725e-20
Ave_blocks 271.42777253951055627 1.4479651192579690999e-19 6.5053284856388962927e-21 3.0421601939221499588e-20 3.69269304248604019e-20 7.7995875748124111541e-09 -0.00017013404507862386569 -0.00018034898888997014294 1.4469561781293582884e-19 -3.6493463555005615951e-07 687.71933462633546696 3.6840623436456053498e-20 -1.4351886962203521373e-06 688.28974201085657114 1.8925781280746243887e-20
Stdev_blocks 0.095204700851049942067 4.9990526549055335098e-21 6.066465057848434823e-22 1.2793638677028409561e-23 5.9817224425360027175e-22 2.1669523435308844264e-10 0.00015390575674648350837 0.00011264487121505585489 4.9504880259389702139e-21 1.5189417058444335474e-08 9.4626534334609999632 6.3146317995420475394e-22 6.0706162627602729167e-08 9.2025180210471653197 6.4964823681910888968e-22






