LAMMPS (28 Oct 2012)
Scanning data file ...
Reading data file ...
  orthogonal box = (0 0 0) to (100 100 100)
  2 by 2 by 2 MPI processor grid
  512 atoms
Finding 1-2 1-3 1-4 neighbors ...
  0 = max # of 1-2 neighbors
  0 = max # of 1-3 neighbors
  0 = max # of 1-4 neighbors
  1 = max # of special neighbors
WARNING: Resetting reneighboring criteria during minimization (min.cpp:173)
Setting up minimization ...
Memory usage per processor = 4.05499 Mbytes
Step Temp E_pair E_mol TotEng Press 
       0       320.15    1409.7233            0    1897.3739    434.80808 
     701       320.15   -217.27527            0    270.37527    22.063182 
Loop time of 0.0556318 on 8 procs for 701 steps with 512 atoms

Minimization stats:
  Stopping criterion = energy tolerance
  Energy initial, next-to-last, final = 
         1409.72334813     -217.256630745     -217.275265106
  Force two-norm initial, final = 5034.49 0.337455
  Force max component initial, final = 2457.89 0.147661
  Final line search alpha, max atom move = 0.254892 0.0376377
  Iterations, force evaluations = 701 710

Pair  time (%) = 0.00895187 (16.0913)
Bond  time (%) = 5.90384e-05 (0.106123)
Neigh time (%) = 0.00314352 (5.65058)
Comm  time (%) = 0.0226595 (40.7312)
Outpt time (%) = 0 (0)
Other time (%) = 0.0208179 (37.4208)

Nlocal:    64 ave 74 max 52 min
Histogram: 1 0 0 1 1 2 0 2 0 1
Nghost:    235.125 ave 266 max 224 min
Histogram: 4 0 2 0 0 1 0 0 0 1
Neighs:    316.25 ave 371 max 226 min
Histogram: 1 0 0 1 1 1 0 1 0 3

Total # of neighbors = 2530
Ave neighs/atom = 4.94141
Ave special neighs/atom = 0
Neighbor list builds = 60
Dangerous builds = 0
Setting up run ...
Memory usage per processor = 3.36354 Mbytes
Step Temp E_pair E_mol TotEng Press Volume 
     701       320.15   -217.27527            0    270.37527    22.063182      1000000 
 5000701    317.10878   -577.62479            0   -94.606614    963.89265    42092.208 
Loop time of 1849.82 on 8 procs for 5000000 steps with 512 atoms

Pair  time (%) = 1075.31 (58.1305)
Bond  time (%) = 0.476793 (0.0257751)
Neigh time (%) = 35.3109 (1.90888)
Comm  time (%) = 572.812 (30.9658)
Outpt time (%) = 4.17233e-05 (2.25553e-06)
Other time (%) = 165.91 (8.96899)

Nlocal:    64 ave 73 max 60 min
Histogram: 2 2 1 1 1 0 0 0 0 1
Nghost:    1565.38 ave 1586 max 1548 min
Histogram: 2 1 0 2 0 0 0 0 1 2
Neighs:    7852.5 ave 8834 max 7361 min
Histogram: 2 1 1 1 2 0 0 0 0 1

Total # of neighbors = 62820
Ave neighs/atom = 122.695
Ave special neighs/atom = 0
Neighbor list builds = 82264
Dangerous builds = 16
Setting up run ...
Memory usage per processor = 3.96939 Mbytes
Step Press Volume Temp PotEng KinEng TotEng Enthalpy E_vdwl E_coul E_tail E_long E_bond E_angle E_dihed E_impro E_mol 
10000000    963.89265    42092.208    317.10878   -577.62479    483.01817   -94.606614    497.09978   -577.62479            0   -12.441484            0            0            0            0            0            0 
10001000    810.29322      42764.1    326.58496   -578.80086    497.45224   -81.348622    424.00738   -578.80086            0   -12.246009            0            0            0            0            0            0 
10002000    1048.6109    42883.619    334.26572   -549.41361    509.15152   -40.262089    615.55344   -549.41361            0   -12.211879            0            0            0            0            0            0 
10003000    1029.5166     42310.95    335.54784    -574.3549    511.10443   -63.250471    572.02489    -574.3549            0   -12.377163            0            0            0            0            0            0 
10004000    875.06172    44329.192    330.70062   -551.25984    503.72117    -47.53867    518.18505   -551.25984            0    -11.81365            0            0            0            0            0            0 
10005000    875.39183    42583.293    303.97914   -571.17092    463.01919   -108.15173    435.49605   -571.17092            0   -12.298005            0            0            0            0            0            0 
10006000    938.72317    42064.547    311.48216   -582.46282    474.44773   -108.01509     467.8618   -582.46282            0   -12.449666            0            0            0            0            0            0 
10007000    847.31523     43033.31    324.13927   -570.06486    493.72697   -76.337889    455.43434   -570.06486            0     -12.1694            0            0            0            0            0            0 
10008000    796.34439    42650.195    328.40233   -585.21571    500.22043   -84.995276    410.33838   -585.21571            0   -12.278714            0            0            0            0            0            0 
10009000    666.46197    43842.018    292.71586   -565.56401    445.86302   -119.70099     306.4287   -565.56401            0   -11.944923            0            0            0            0            0            0 
10010000    667.72473    45863.072    305.56823   -540.95918    465.43968   -75.519501    371.09877   -540.95918            0   -11.418545            0            0            0            0            0            0 
10011000    1023.8677    42141.187    318.35199   -572.26135    484.91182   -87.349526    541.90522   -572.26135            0   -12.427024            0            0            0            0            0            0 
10012000    773.32152    43890.928    313.23462    -561.2102    477.11708   -84.093119    410.91321    -561.2102            0   -11.931613            0            0            0            0            0            0 
10013000    929.62153    42461.949    340.21742   -575.68772    518.21711   -57.470614    518.21051   -575.68772            0   -12.333149            0            0            0            0            0            0 
10014000     956.4061    43315.606    344.25864   -557.49346    524.37268    -33.12078    571.05404   -557.49346            0   -12.090089            0            0            0            0            0            0 
10015000    684.52214    43863.722    325.44446   -580.30072    495.71503   -84.585688    353.30819   -580.30072            0   -11.939013            0            0            0            0            0            0 
10016000    1122.9429    40971.855    299.26463    -577.7132    455.83807   -121.87512    549.11971    -577.7132            0    -12.78169            0            0            0            0            0            0 
10017000    868.71651      42760.7    309.98571   -576.04361    472.16835   -103.87526    437.87456   -576.04361            0   -12.246982            0            0            0            0            0            0 
10018000    801.71786    43055.252     309.6904   -578.12963    471.71854   -106.41109    397.00093   -578.12963            0   -12.163198            0            0            0            0            0            0 
10019000    1044.9047    43015.875    313.68301   -547.17942    477.80006   -69.379358    586.13364   -547.17942            0   -12.174332            0            0            0            0            0            0 
10020000    752.93942    44298.299     311.1596   -557.89504    473.95641   -83.938632    402.49431   -557.89504            0   -11.821888            0            0            0            0            0            0 
10021000    748.56314    43449.339    320.41325   -579.22873    488.05152   -91.177211    383.16033   -579.22873            0   -12.052877            0            0            0            0            0            0 
10022000    807.31711    41908.475    301.27262   -596.98028    458.89663   -138.08366     355.3422   -596.98028            0    -12.49603            0            0            0            0            0            0 
10023000    664.92503    44584.115    292.58676    -560.9262    445.66637   -115.25982    317.08346    -560.9262            0   -11.746102            0            0            0            0            0            0 
10024000    886.22413    41920.283    355.42682   -594.61812    541.38398   -53.234147    488.57167   -594.61812            0    -12.49251            0            0            0            0            0            0 
10025000    1076.4775    42816.253    323.66213   -557.35658    493.00019   -64.356393     607.8297   -557.35658            0   -12.231092            0            0            0            0            0            0 
10026000    973.06532     41059.21    326.18925   -598.27131    496.84948   -101.42183    481.25598   -598.27131            0   -12.754496            0            0            0            0            0            0 
10027000    1009.7237    41915.715    315.54604   -574.75598    480.63782    -94.11816    523.12363   -574.75598            0   -12.493871            0            0            0            0            0            0 
10028000    915.84404    43102.105    325.21416   -565.40672    495.36424   -70.042483    505.65707   -565.40672            0   -12.149976            0            0            0            0            0            0 
10029000    940.99152    42716.263     325.9149   -566.33904    496.43159   -69.907451    516.30475   -566.33904            0   -12.259723            0            0            0            0            0            0 
10030000    773.47607    45271.605       321.89   -545.18989     490.3009   -54.888996    455.79078   -545.18989            0   -11.567727            0            0            0            0            0            0 
10031000    828.07492    42088.201    304.70999   -586.70357    464.13241   -122.57116    385.71219   -586.70357            0   -12.442669            0            0            0            0            0            0 
10032000    893.33341    42634.266    315.56085   -570.22386    480.66038   -89.563478    465.89073   -570.22386            0   -12.283301            0            0            0            0            0            0 
10033000     681.7095    43119.642    336.07281   -586.98264    511.90406   -75.078576    353.61836   -586.98264            0   -12.145035            0            0            0            0            0            0 
10034000    920.93016    42232.267    330.36577   -579.29812    503.21114   -76.086982    491.12707   -579.29812            0   -12.400223            0            0            0            0            0            0 
10035000    889.34363    43898.686    333.33449   -553.51957    507.73308   -45.786489     523.5867   -553.51957            0   -11.929504            0            0            0            0            0            0 
10036000    862.72425    42912.275      331.595   -576.46583    505.08349   -71.382338    468.53769   -576.46583            0   -12.203724            0            0            0            0            0            0 
10037000     841.5371    42665.644    336.02688   -582.68152    511.83411   -70.847413    452.78613   -582.68152            0   -12.274268            0            0            0            0            0            0 
10038000    1031.2639    41365.931    330.45699   -587.54706    503.35009   -84.196969    537.94357   -587.54706            0   -12.659924            0            0            0            0            0            0 
10039000    1031.2739    42626.127     313.7172   -559.45388    477.85214   -81.601737    559.49829   -559.45388            0   -12.285647            0            0            0            0            0            0 
10040000    965.24618    42631.101    326.51779   -572.80957    497.34991   -75.459655    524.66371   -572.80957            0   -12.284213            0            0            0            0            0            0 
10041000    1066.1475    42082.245     347.9112    -566.8426    529.93623   -36.906367    617.41649    -566.8426            0    -12.44443            0            0            0            0            0            0 
10042000    967.08486      41593.7    316.08369   -580.82064    481.45677   -99.363878     487.2712   -580.82064            0   -12.590598            0            0            0            0            0            0 
10043000    834.41363    43992.357    320.88313   -557.64483    488.76724   -68.877586    466.46835   -557.64483            0   -11.904103            0            0            0            0            0            0 
10044000    1080.5016    42110.323    333.41283   -566.65012    507.85239    -58.79773    604.77708   -566.65012            0   -12.436132            0            0            0            0            0            0 
10045000    956.33859    41641.896    313.96876   -588.39341     478.2353    -110.1581    470.63047   -588.39341            0   -12.576026            0            0            0            0            0            0 
10046000     957.9112    41714.911    321.87336   -585.37061    490.27555   -95.095056     487.6686   -585.37061            0   -12.554013            0            0            0            0            0            0 
10047000    876.50724    42441.687    315.64742   -578.17414    480.79224   -97.381902    445.14844   -578.17414            0   -12.339037            0            0            0            0            0            0 
10048000    816.34125     42276.26     323.7968   -592.72396    493.20532   -99.518639    403.80136   -592.72396            0    -12.38732            0            0            0            0            0            0 
10049000    968.61883    43158.543    302.28399   -557.08941    460.43714   -96.652265    513.01879   -557.08941            0   -12.134088            0            0            0            0            0            0 
10050000    806.38085    43498.793    300.15043   -565.50554    457.18731   -108.31822    403.23792   -565.50554            0   -12.039174            0            0            0            0            0            0 
10051000    819.44884    43764.596    321.03046   -569.20076    488.99165   -80.209112    442.81373   -569.20076            0   -11.966055            0            0            0            0            0            0 
10052000    921.77946    43092.013    317.40423   -561.46904     483.4682   -78.000842    501.29405   -561.46904            0   -12.152822            0            0            0            0            0            0 
10053000    902.20681    42324.539    338.12808   -584.17689    515.03464   -69.142249    487.75391   -584.17689            0    -12.37319            0            0            0            0            0            0 
10054000    720.70144    42392.803    309.98959   -591.56175    472.17426   -119.38748    326.19018   -591.56175            0   -12.353265            0            0            0            0            0            0 
10055000    766.59941    42999.316    323.88708   -583.90598    493.34283   -90.563141    390.17205   -583.90598            0    -12.17902            0            0            0            0            0            0 
10056000    998.94051    41658.677    332.10982   -584.39555    505.86766    -78.52789     528.3775   -584.39555            0    -12.57096            0            0            0            0            0            0 
10057000    788.68902    43473.848    342.13034   -571.61881    521.13086   -50.487947    449.55783   -571.61881            0   -12.046082            0            0            0            0            0            0 
10058000    1183.6683    42569.061    317.31646   -549.89493    483.33452   -66.560414    668.29177   -549.89493            0   -12.302116            0            0            0            0            0            0 
10059000    931.43506    42671.735    297.73457   -575.57695    453.50749   -122.06946    457.58445   -575.57695            0   -12.272516            0            0            0            0            0            0 
10060000    954.47393    43615.471    310.20027   -548.76226    472.49517   -76.267099    530.86127   -548.76226            0   -12.006968            0            0            0            0            0            0 
10061000    921.70583    43635.338    313.86293   -550.19308    478.07411   -72.118971    514.43309   -550.19308            0   -12.001501            0            0            0            0            0            0 
10062000    859.64217    42130.194    323.81083   -583.23936     493.2267    -90.01266    438.17355   -583.23936            0   -12.430267            0            0            0            0            0            0 
10063000    961.04393    42273.137    314.22824   -577.15356    478.63055   -98.523006    493.97052   -577.15356            0   -12.388235            0            0            0            0            0            0 
10064000    974.28634    41915.692    308.42993   -576.98559     469.7986     -107.187    488.39168   -576.98559            0   -12.493878            0            0            0            0            0            0 
10065000    826.93674    43213.714    319.62685   -567.32964    486.85369    -80.47595    440.68248   -567.32964            0   -12.118596            0            0            0            0            0            0 
10066000    943.32106    42126.951    326.21235    -574.6864    496.88467   -77.801724    501.75434    -574.6864            0   -12.431223            0            0            0            0            0            0 
10067000    1070.5803    42596.988    344.07854   -564.25481    524.09835   -40.156457    624.92376   -564.25481            0   -12.294051            0            0            0            0            0            0 
10068000     867.3147    42648.499    323.74185   -583.36599    493.12163    -90.24436    449.21203   -583.36599            0   -12.279202            0            0            0            0            0            0 
10069000    849.63865    43596.155    320.42808    -559.0689     488.0741   -70.994801    469.20987    -559.0689            0   -12.012288            0            0            0            0            0            0 
10070000    810.45061     44501.28    292.63497   -546.84605    445.73981   -101.10624    424.88069   -546.84605            0   -11.767966            0            0            0            0            0            0 
10071000    1131.6304    41596.278    312.96592   -564.27154    476.70779   -87.563759    598.92743   -564.27154            0   -12.589817            0            0            0            0            0            0 
10072000    891.08517    42650.507    313.39426   -567.83237    477.36024   -90.472136    463.79522   -567.83237            0   -12.278624            0            0            0            0            0            0 
10073000    1121.5962    41636.862    326.99618   -575.41008     498.0786   -77.331478    603.73644   -575.41008            0   -12.577546            0            0            0            0            0            0 
10074000    816.91715    43684.982     314.0905   -562.66136    478.42075   -84.240605    436.21784   -562.66136            0   -11.987862            0            0            0            0            0            0 
10075000    882.41793    43109.177    329.79986   -570.94492    502.34915   -68.595774    486.18314   -570.94492            0   -12.147983            0            0            0            0            0            0 
10076000    858.66593    43298.726    292.42269   -564.12253    445.41647   -118.70606    423.51357   -564.12253            0   -12.094803            0            0            0            0            0            0 
10077000    836.28262    43283.724    306.26921   -567.22031    466.50741    -100.7129    427.18943   -567.22031            0   -12.098995            0            0            0            0            0            0 
10078000    883.71381    43058.428    316.01883   -568.07433    481.35796   -86.716371    468.22321   -568.07433            0   -12.162301            0            0            0            0            0            0 
10079000    825.73346     42147.56    328.25342   -593.73417    499.99362   -93.740551    413.82041   -593.73417            0   -12.425145            0            0            0            0            0            0 
10080000    1117.0409    41123.859    323.93178   -587.08559    493.41092   -93.674664    576.26982   -587.08559            0   -12.734446            0            0            0            0            0            0 
10081000    971.87975    41730.176    318.29227   -589.46719    484.82085   -104.64634    486.83171   -589.46719            0   -12.549421            0            0            0            0            0            0 
10082000    944.89356    42840.021    313.45911   -569.54554    477.45901    -92.08653    498.26195   -569.54554            0   -12.224307            0            0            0            0            0            0 
10083000    875.09475    43476.111    339.16673    -561.4875    516.61671   -44.870795    509.98696    -561.4875            0   -12.045455            0            0            0            0            0            0 
10084000    1058.0193    41300.666    309.07773   -573.27229    470.78533   -102.48696    534.78751   -573.27229            0    -12.67993            0            0            0            0            0            0 
10085000     923.7229    43156.275    321.61696   -559.78409      489.885    -69.89909    511.48288   -559.78409            0   -12.134725            0            0            0            0            0            0 
10086000     975.0364    41806.136    305.50605   -585.19957    465.34497    -119.8546    474.62471   -585.19957            0   -12.526619            0            0            0            0            0            0 
10087000    946.03906    42492.155    318.50034   -575.86052    485.13778   -90.722732    495.54193   -575.86052            0   -12.324382            0            0            0            0            0            0 
10088000    760.08769     43701.49    334.03833   -572.62551    508.80516   -63.820353      420.615   -572.62551            0   -11.983334            0            0            0            0            0            0 
10089000    812.98143    43084.498    336.24461    -572.8396    512.16576   -60.673847    450.15751    -572.8396            0   -12.154941            0            0            0            0            0            0 
10090000    801.76941    43397.349    317.40787   -562.71853    483.47375   -79.244783    428.19974   -562.71853            0   -12.067317            0            0            0            0            0            0 
10091000    964.60214    42266.331    314.44788   -571.30279    478.96511   -92.337683    502.25376   -571.30279            0    -12.39023            0            0            0            0            0            0 
10092000    815.75892    43775.368    320.00867    -558.6647    487.43527   -71.229434    449.56643    -558.6647            0    -11.96311            0            0            0            0            0            0 
10093000    964.65923    42807.104    305.05436   -559.47905    464.65695   -94.822107    507.41244   -559.47905            0   -12.233706            0            0            0            0            0            0 
10094000      804.598    43917.493    311.66581   -566.50313    474.72747   -91.775653     423.5626   -566.50313            0   -11.924395            0            0            0            0            0            0 
10095000    756.46919    43814.261     333.0193   -565.85795    507.25297   -58.604977    424.76828   -565.85795            0   -11.952491            0            0            0            0            0            0 
10096000    1101.0536    41133.581    321.32481   -578.97331       489.44   -89.533307    570.97891   -578.97331            0   -12.731436            0            0            0            0            0            0 
10097000    956.56988    42004.823    348.81964    -587.0986    531.31996   -55.778642    530.21344    -587.0986            0   -12.467367            0            0            0            0            0            0 
10098000    799.28499    43701.236    324.76314   -568.36242    494.67725   -73.685169    435.72929   -568.36242            0   -11.983404            0            0            0            0            0            0 
10099000    1037.7186    41751.687    312.39265   -574.80033    475.83459   -98.965745    532.90686   -574.80033            0   -12.542955            0            0            0            0            0            0 
10100000    762.71212    43335.288    316.54935   -573.72564    482.16605   -91.559591    390.47502   -573.72564            0   -12.084598            0            0            0            0            0            0 
10101000    899.05431    43944.009    309.00053   -552.78318    470.66774   -82.115438    494.06896   -552.78318            0     -11.9172            0            0            0            0            0            0 
10102000    979.34735    42713.518    319.14566   -568.21128    486.12074   -82.090542    527.97709   -568.21128            0   -12.260511            0            0            0            0            0            0 
10103000    809.67978    42310.663    322.46919   -586.77227    491.18312   -95.589146    404.02993   -586.77227            0   -12.377248            0            0            0            0            0            0 
10104000    921.09067    42156.158    306.94286   -576.19389     467.5335    -108.6604    457.63012   -576.19389            0   -12.422611            0            0            0            0            0            0 
10105000    830.69783    43482.539    322.60971   -561.30522    491.39715   -69.908065     456.8775   -561.30522            0   -12.043674            0            0            0            0            0            0 
10106000    1125.4794    40850.984    292.67631   -582.52673    445.80278   -136.72395    533.80256   -582.52673            0   -12.819509            0            0            0            0            0            0 
10107000    706.37898    44758.439    306.82517   -552.53576    467.35424   -85.181516    375.91154   -552.53576            0   -11.700353            0            0            0            0            0            0 
10108000    926.03223    42245.268    324.50347   -586.14623    494.28172   -91.864518    478.66755   -586.14623            0   -12.396407            0            0            0            0            0            0 
10109000     1025.668    42558.404    325.87768   -566.24975     496.3749   -69.874851    566.72719   -566.24975            0   -12.305197            0            0            0            0            0            0 
10110000    944.00102    43649.435    327.68301    -555.9187    499.12477   -56.793926    544.14036    -555.9187            0   -11.997625            0            0            0            0            0            0 
10111000     816.5191    44043.422    323.54697   -558.85474    492.82479   -66.029951    458.44324   -558.85474            0   -11.890301            0            0            0            0            0            0 
10112000     872.8074    42846.361     304.8687   -565.54588    464.37415   -101.17173    444.21962   -565.54588            0   -12.222498            0            0            0            0            0            0 
10113000    853.68478    42353.641    312.49258   -577.91546     475.9868   -101.92866    425.37912   -577.91546            0   -12.364688            0            0            0            0            0            0 
10114000    823.06893    43008.304    292.88425   -567.43532    446.11951    -121.3158    394.93937   -567.43532            0   -12.176475            0            0            0            0            0            0 
10115000    928.58394    44215.878    314.46785   -539.06543    478.99553   -60.069899    538.72116   -539.06543            0   -11.843925            0            0            0            0            0            0 
10116000    875.47526    41830.766    318.14031    -596.1838    484.58939   -111.59441    422.49699    -596.1838            0   -12.519244            0            0            0            0            0            0 
10117000    838.60657    43327.341    341.57907   -564.99225    520.29117   -44.701076     485.2017   -564.99225            0   -12.086815            0            0            0            0            0            0 
10118000    941.94726    43089.797    311.86566   -559.33173    475.03189   -84.299836    507.63912   -559.33173            0   -12.153447            0            0            0            0            0            0 
10119000    817.28041    43171.345    310.79581   -569.99251    473.40229   -96.590218    417.97752   -569.99251            0    -12.13049            0            0            0            0            0            0 
10120000    831.29301     44199.76     313.5419   -546.28045    477.58512   -68.695331    467.16293   -546.28045            0   -11.848244            0            0            0            0            0            0 
10121000    817.22639    43623.757    317.00022   -565.51141    482.85281   -82.658604    437.26716   -565.51141            0   -12.004687            0            0            0            0            0            0 
10122000     879.4843    43704.805    337.65065   -557.51124    514.30743   -43.203813    517.37046   -557.51124            0   -11.982425            0            0            0            0            0            0 
10123000     813.8595    42785.139    299.64312   -575.05421    456.41458   -118.63964    389.19027   -575.05421            0   -12.239987            0            0            0            0            0            0 
10124000    859.94369    44248.767    332.44673   -547.54826    506.38084   -41.167415    513.77393   -547.54826            0   -11.835122            0            0            0            0            0            0 
10125000    889.50925    41427.704    302.20697   -589.31218    460.31982   -128.99235    408.43185   -589.31218            0   -12.641047            0            0            0            0            0            0 
10126000    802.81779     43784.57    291.20065   -558.63249    443.55507   -115.07742    397.56432   -558.63249            0   -11.960596            0            0            0            0            0            0 
10127000    761.68776    43403.283    313.83943   -572.84156    478.03831   -94.803247    387.33929   -572.84156            0   -12.065667            0            0            0            0            0            0 
10128000    951.00156     42895.96    324.30618    -565.3298    493.98121   -71.348591    523.59188    -565.3298            0   -12.208365            0            0            0            0            0            0 
10129000    970.97426    42211.314    323.65146   -571.35765    492.98395   -78.373698    519.36653   -571.35765            0   -12.406379            0            0            0            0            0            0 
10130000    904.75819    43233.929    306.27947   -558.33188    466.52304   -91.808839    478.66157   -558.33188            0    -12.11293            0            0            0            0            0            0 
10131000    837.57855      42747.6    308.19967   -569.37018    469.44787   -99.922315    422.24919   -569.37018            0   -12.250736            0            0            0            0            0            0 
10132000    1001.3949    42323.043    320.98238   -572.19204    488.91842   -83.273622    534.82554   -572.19204            0   -12.373627            0            0            0            0            0            0 
10133000    856.68658    43140.703     317.8874   -570.44096    484.20416   -86.236795    452.75862   -570.44096            0   -12.139105            0            0            0            0            0            0 
10134000    910.62782    42984.296    320.82836   -568.35352    488.68382     -79.6697    491.18637   -568.35352            0   -12.183276            0            0            0            0            0            0 
10135000    905.89584    42371.309    308.63227    -578.6149     470.1068    -108.5081    451.28306    -578.6149            0   -12.359532            0            0            0            0            0            0 
10136000    830.14287    42856.363    318.95867   -576.16022    485.83591   -90.324309    428.52835   -576.16022            0   -12.219645            0            0            0            0            0            0 
10137000     785.0387     44258.18    309.60895   -555.37271    471.59448   -83.778226    422.93297   -555.37271            0   -11.832605            0            0            0            0            0            0 
10138000    741.15696    42667.262     312.8245   -584.57116    476.49238   -108.07877    353.11226   -584.57116            0   -12.273802            0            0            0            0            0            0 
10139000    1018.6075    42736.775    337.31252   -567.20671    513.79239   -53.414316    581.45527   -567.20671            0   -12.253839            0            0            0            0            0            0 
10140000    1054.8747    41845.794    320.57094    -580.7849    488.29172   -92.493182    551.27362    -580.7849            0   -12.514748            0            0            0            0            0            0 
10141000    1079.0931    42686.462    308.42413   -549.10015    469.78976   -79.310396    592.46632   -549.10015            0   -12.268282            0            0            0            0            0            0 
10142000    790.38813    44047.999    313.83726   -554.14868    478.03502   -76.113665    431.62763   -554.14868            0   -11.889065            0            0            0            0            0            0 
10143000    834.09512    42414.495    338.51852   -589.88859    515.62935   -74.259242    441.68857   -589.88859            0   -12.346947            0            0            0            0            0            0 
10144000    915.27523    42656.275    326.27085   -569.71881    496.97377   -72.745039    496.64587   -569.71881            0   -12.276964            0            0            0            0            0            0 
10145000    859.79261    43634.803     317.9367   -565.46053    484.27925   -81.181289    465.96395   -565.46053            0   -12.001648            0            0            0            0            0            0 
10146000    798.51203     42582.84    322.20892   -588.80812    490.78667   -98.021451    397.87612   -588.80812            0   -12.298136            0            0            0            0            0            0 
10147000    852.91203    43189.545    313.09826   -567.00586    476.90938   -90.096483    447.13166   -567.00586            0   -12.125378            0            0            0            0            0            0 
10148000    921.21051     42653.54    328.51484   -575.76249    500.39181   -75.370679    497.67581   -575.76249            0   -12.277751            0            0            0            0            0            0 
10149000    899.30041    43921.862    335.30871   -550.82658     510.7402    -40.08638    535.96527   -550.82658            0   -11.923209            0            0            0            0            0            0 
10150000    1081.4689    42384.125     340.9283   -555.96261    519.29992   -36.662689    631.82459   -555.96261            0   -12.355795            0            0            0            0            0            0 
10151000    780.67464    42965.153    322.36007   -583.84554    491.01691   -92.828635     396.3442   -583.84554            0   -12.188704            0            0            0            0            0            0 
10152000    900.23323     42760.58    320.06217   -568.88408    487.51675    -81.36733     480.0354   -568.88408            0   -12.247017            0            0            0            0            0            0 
10153000    925.96612    43715.398    353.78448   -559.71522    538.88237    -20.83284    569.51153   -559.71522            0   -11.979521            0            0            0            0            0            0 
10154000    998.79166    41501.767    323.55312   -588.88805    492.83415   -96.053896    508.47544   -588.88805            0   -12.618488            0            0            0            0            0            0 
10155000    859.75599    43029.971    303.09701   -575.56593    461.67552   -113.89041    425.64773   -575.56593            0   -12.170344            0            0            0            0            0            0 
10156000    944.99758    42418.938     310.5266   -576.22234    472.99223    -103.2301    481.38009   -576.22234            0   -12.345654            0            0            0            0            0            0 
10157000    895.59864    42903.924    313.55136    -565.8338    477.59952   -88.234279     472.1505    -565.8338            0   -12.206099            0            0            0            0            0            0 
10158000    831.37151    42804.322    312.69085    -572.0642    476.28881    -95.77539     423.2142    -572.0642            0   -12.234502            0            0            0            0            0            0 
10159000    820.91141    43059.716     327.5423   -571.41598    498.91045   -72.505523    443.01189   -571.41598            0   -12.161937            0            0            0            0            0            0 
10160000    950.16372    42618.739    326.77184   -571.18622    497.73689   -73.449328     517.1255   -571.18622            0   -12.287777            0            0            0            0            0            0 
10161000    970.44284    42474.781    298.56288   -565.93765    454.76917   -111.16848    489.97341   -565.93765            0   -12.329423            0            0            0            0            0            0 
10162000    753.28964    43235.719    320.39935   -575.53525    488.03035   -87.504901    387.48083   -575.53525            0   -12.112428            0            0            0            0            0            0 
10163000    877.67532    42965.747    309.91344   -565.66761    472.05828   -93.609331    456.35199   -565.66761            0   -12.188536            0            0            0            0            0            0 
10164000    929.93018    42174.156    306.01791   -580.41698    466.12462   -114.29236    457.67683   -580.41698            0   -12.417309            0            0            0            0            0            0 
10165000    903.15387    42003.128    317.50745   -577.23804    483.62542   -93.612621    459.63464   -577.23804            0    -12.46787            0            0            0            0            0            0 
10166000    775.24385    43066.006    330.04423   -582.67432    502.72137    -79.95295    406.95718   -582.67432            0   -12.160161            0            0            0            0            0            0 
10167000    861.98439    43502.951    317.65931   -559.34847    483.85674   -75.491728    471.39075   -559.34847            0   -12.038023            0            0            0            0            0            0 
10168000    1006.5376    42345.695    353.34092   -572.84697    538.20674   -34.640225    586.96573   -572.84697            0   -12.367008            0            0            0            0            0            0 
10169000    1059.2425    41717.521    314.64466   -575.20973    479.26484   -95.944892    548.50592   -575.20973            0   -12.553228            0            0            0            0            0            0 
10170000    746.21386    44337.838    311.90906   -555.69228      475.098   -80.594288    401.92392   -555.69228            0   -11.811346            0            0            0            0            0            0 
10171000     891.4042    42762.532    309.50216   -570.54751    471.43181   -99.115705    456.80644   -570.54751            0   -12.246458            0            0            0            0            0            0 
10172000    836.58777    42738.756    315.68814   -578.08038    480.85426   -97.226126     424.2198   -578.08038            0   -12.253271            0            0            0            0            0            0 
10173000    925.02592    42344.447     312.4932   -569.39251    475.98775   -93.404763    477.84529   -569.39251            0   -12.367372            0            0            0            0            0            0 
10174000    832.29904    43706.834    317.48429   -566.29833    483.59014    -82.70819    447.81532   -566.29833            0   -11.981869            0            0            0            0            0            0 
10175000    969.73964    41743.065    329.17534   -588.23157    501.39788   -86.833689     503.5242   -588.23157            0   -12.545546            0            0            0            0            0            0 
10176000    991.42086    41689.446    317.76749   -591.42302    484.02151   -107.40151     495.3802   -591.42302            0   -12.561682            0            0            0            0            0            0 
10177000    739.99287    43873.965    323.99163   -568.32776    493.50209   -74.825666    398.66379   -568.32776            0   -11.936226            0            0            0            0            0            0 
10178000    876.79216    42335.448    326.10654   -590.61274     496.7235   -93.889235    447.45898   -590.61274            0   -12.370001            0            0            0            0            0            0 
10179000    821.27677    43621.078     315.9675   -565.45527    481.27978   -84.175485    438.29508   -565.45527            0   -12.005424            0            0            0            0            0            0 
10180000    772.37046    42698.425    333.10351   -582.59331    507.38124    -75.21207    405.75285   -582.59331            0   -12.264845            0            0            0            0            0            0 
10181000    752.41425    43386.871    320.26544   -573.75081    487.82637   -85.924441    390.16793   -573.75081            0   -12.070231            0            0            0            0            0            0 
10182000    891.05616    41786.214    317.17599   -591.62857    483.12055   -108.50802    434.50969   -591.62857            0   -12.532591            0            0            0            0            0            0 
10183000    871.33613    43058.662    323.27603   -570.95973    492.41208   -78.547648    468.62218   -570.95973            0   -12.162234            0            0            0            0            0            0 
10184000    785.94172     43821.63    315.35185   -554.46319    480.34202   -74.121166     428.1691   -554.46319            0   -11.950481            0            0            0            0            0            0 
10185000    818.38374    43867.951    342.98854   -561.43255    522.43806   -38.994493    484.58211   -561.43255            0   -11.937862            0            0            0            0            0            0 
10186000    840.47907    41732.477      303.828   -600.74483    462.78897   -137.95586    373.58102   -600.74483            0   -12.548729            0            0            0            0            0            0 
10187000    787.91873    43704.658    332.01358   -568.97364    505.72107   -63.252577    438.95706   -568.97364            0   -11.982465            0            0            0            0            0            0 
10188000    925.00425    42709.711    315.93357   -565.20462    481.22809   -83.976526    492.18764   -565.20462            0   -12.261604            0            0            0            0            0            0 
10189000    858.59989    41859.362    315.14629   -587.77594    480.02892   -107.74701    416.40749   -587.77594            0   -12.510691            0            0            0            0            0            0 
10190000    819.80506    42890.027    314.23946   -577.28831    478.64764   -98.640677    414.15316   -577.28831            0   -12.210054            0            0            0            0            0            0 
10191000    838.25654    43335.556    326.50834   -569.11464    497.33552   -71.779115     458.0029   -569.11464            0   -12.084524            0            0            0            0            0            0 
10192000    856.06585    42418.337    311.72055   -575.68117    474.81085   -100.87032    428.71593   -575.68117            0   -12.345829            0            0            0            0            0            0 
10193000    664.89212     43016.76    314.46057    -586.7355    478.98443   -107.75107    309.37253    -586.7355            0   -12.174082            0            0            0            0            0            0 
10194000    854.32887    43468.126    309.77124   -555.55255    471.84168   -83.710866     457.8807   -555.55255            0   -12.047668            0            0            0            0            0            0 
10195000    1051.3607    42338.728    313.33271   -567.47452    477.26649   -90.208031    558.97243   -567.47452            0   -12.369043            0            0            0            0            0            0 
10196000    1058.2984    42061.383    313.33519   -564.01677    477.27025   -86.746513    562.43716   -564.01677            0   -12.450602            0            0            0            0            0            0 
10197000     845.7013    43216.858    327.56803    -567.3121    498.94963   -68.362465    464.66069    -567.3121            0   -12.117714            0            0            0            0            0            0 
10198000     950.7887    43059.127    319.50277   -564.50435    486.66469   -77.839663    519.23016   -564.50435            0   -12.162103            0            0            0            0            0            0 
10199000    832.46672     43727.23    304.94176   -556.73876    464.48544   -92.253322    438.62469   -556.73876            0    -11.97628            0            0            0            0            0            0 
10200000    771.51322    42197.125    312.84839   -587.33738    476.52877   -110.80861      363.982   -587.33738            0    -12.41055            0            0            0            0            0            0 
10201000    902.67818    43350.604    314.32456   -557.06156    478.77726   -78.284294     492.4106   -557.06156            0   -12.080329            0            0            0            0            0            0 
10202000    832.44321    42881.993    321.47497    -574.2305    489.66872   -84.561776    436.03979    -574.2305            0   -12.212342            0            0            0            0            0            0 
10203000    1061.0797    41585.196    306.54195   -573.67087    466.92284   -106.74803    536.77283   -573.67087            0   -12.593172            0            0            0            0            0            0 
10204000    1038.5377    42822.451    314.57818   -555.17823    479.16358   -76.014651     572.5745   -555.17823            0   -12.229322            0            0            0            0            0            0 
10205000    925.78633    41780.005    309.80539   -586.93593    471.89368   -115.04225     449.0565   -586.93593            0   -12.534454            0            0            0            0            0            0 
10206000    835.49626    43390.096      311.737   -562.78815    474.83591    -87.95224    440.74983   -562.78815            0   -12.069334            0            0            0            0            0            0 
10207000    894.71063    43296.614    305.72249   -562.68295    465.67464   -97.008312    467.94482   -562.68295            0   -12.095393            0            0            0            0            0            0 
10208000    925.40003    41557.409    313.06342   -588.40782     476.8563   -111.55152    449.30769   -588.40782            0   -12.601593            0            0            0            0            0            0 
10209000    913.05294    43085.904     297.9652   -561.35278    453.85879   -107.49398    466.23536   -561.35278            0   -12.154545            0            0            0            0            0            0 
10210000    698.44254    44527.415    312.96651   -558.74559    476.70868   -82.036905    371.52237   -558.74559            0   -11.761059            0            0            0            0            0            0 
10211000    1099.4281    42566.839    312.99283   -551.43839    476.74878   -74.689617    607.82841   -551.43839            0   -12.302759            0            0            0            0            0            0 
10212000    964.39138    43225.152    325.93673   -557.91749    496.46485   -61.452633     546.4944   -557.91749            0   -12.115389            0            0            0            0            0            0 
10213000    937.43335    42681.526    325.97507   -574.11272    496.52325   -77.589466    505.93119   -574.11272            0     -12.2697            0            0            0            0            0            0 
10214000     773.8584    43472.787    321.81597   -569.17826    490.18814   -78.990123    411.64075   -569.17826            0   -12.046376            0            0            0            0            0            0 
10215000    1047.7455    42384.985     326.5078    -567.2493     497.3347   -69.914593     577.7404    -567.2493            0   -12.355544            0            0            0            0            0            0 
10216000     953.3347    43912.889    332.33961   -551.60425    506.21768   -45.386575    565.15227   -551.60425            0   -11.925645            0            0            0            0            0            0 
10217000    857.48266    42142.203    341.31305    -586.9378    519.88597   -67.051836     459.9577    -586.9378            0   -12.426724            0            0            0            0            0            0 
10218000    1073.8002    42493.448    327.48072   -564.24987    498.81664    -65.43323    600.02581   -564.24987            0   -12.324007            0            0            0            0            0            0 
10219000    1056.1635    41972.733    339.47045   -577.99081    517.07933   -60.911481    585.59709   -577.99081            0   -12.476899            0            0            0            0            0            0 
10220000    706.51802    43801.571    333.36924   -574.88656      507.786   -67.100562    384.22384   -574.88656            0   -11.955954            0            0            0            0            0            0 
10221000    831.31535    41913.639    304.59038    -593.1836    463.95022   -129.23338    378.92262    -593.1836            0    -12.49449            0            0            0            0            0            0 
10222000    830.31036    43494.002    322.14423   -575.30405    490.68813   -84.615915    442.06273   -575.30405            0     -12.0405            0            0            0            0            0            0 
10223000    1047.6422    40971.478    311.36013   -591.53277    474.26186    -117.2709    508.72361   -591.53277            0   -12.781807            0            0            0            0            0            0 
10224000     712.5661     43080.62    316.65653   -589.49026    482.32931   -107.16095    340.53483   -589.49026            0   -12.156035            0            0            0            0            0            0 
10225000    763.00085    43945.007     325.3697    -563.6142    495.60116   -68.013043    420.98875    -563.6142            0   -11.916929            0            0            0            0            0            0 
10226000    963.20693    43288.537    325.33102   -553.04265    495.54223   -57.500424    550.59032   -553.04265            0    -12.09765            0            0            0            0            0            0 
10227000    954.37558    42227.374    327.53098    -576.9342    498.89321   -78.040994    509.70446    -576.9342            0    -12.40166            0            0            0            0            0            0 
10228000    893.06153    43880.331    319.14366   -551.41746    486.11769    -65.29977    506.21462   -551.41746            0   -11.934494            0            0            0            0            0            0 
10229000    990.87411    42646.832    328.63426   -570.86651    500.57371   -70.292795    545.99156   -570.86651            0   -12.279682            0            0            0            0            0            0 
10230000    1118.7143    41419.967     339.0603   -576.96942    516.45459   -60.514835     615.2644   -576.96942            0   -12.643408            0            0            0            0            0            0 
10231000    760.33421    44384.502    319.90249   -556.21762    487.27353   -68.944083     423.2221   -556.21762            0   -11.798928            0            0            0            0            0            0 
10232000    926.21822     43910.64    314.39091   -544.78349    478.87833    -65.90516    527.23725   -544.78349            0   -11.926256            0            0            0            0            0            0 
10233000    893.94852    42857.741    307.20856   -564.86154    467.93822   -96.923319    461.82687   -564.86154            0   -12.219252            0            0            0            0            0            0 
10234000    854.07644    42774.182    328.57027   -584.98215    500.47624   -84.505906    448.28197   -584.98215            0   -12.243123            0            0            0            0            0            0 
10235000    856.58851    42591.272    288.23922   -574.51457    439.04424   -135.47034    396.59964   -574.51457            0   -12.295701            0            0            0            0            0            0 
10236000     864.0414    43967.869    305.88811    -553.4715    465.92691   -87.544587    466.50146    -553.4715            0   -11.910733            0            0            0            0            0            0 
10237000    846.65398    42831.837    330.36309   -579.06011    503.20706    -75.85305    453.01648   -579.06011            0   -12.226642            0            0            0            0            0            0 
10238000    913.02838    43929.121    334.71223   -550.51452    509.83164   -40.682887    544.25895   -550.51452            0   -11.921239            0            0            0            0            0            0 
10239000    939.58345    43560.978    323.38108   -549.14575     492.5721   -56.573649    540.33637   -549.14575            0   -12.021988            0            0            0            0            0            0 
10240000    795.78257    43442.405     326.1513   -571.51804    496.79168   -74.726365    429.45197   -571.51804            0   -12.054801            0            0            0            0            0            0 
10241000    767.13713    43547.223    300.32887    -570.2498    457.45911    -112.7907    374.41163    -570.2498            0   -12.025785            0            0            0            0            0            0 
10242000    942.23157    42823.026    328.61016   -571.34054      500.537   -70.803542    517.64826   -571.34054            0   -12.229158            0            0            0            0            0            0 
10243000    1013.9074     41787.47    305.54542   -578.68364    465.40492   -113.27871     504.6242   -578.68364            0   -12.532215            0            0            0            0            0            0 
10244000    665.87184    43230.964    328.98799   -590.12203    501.11252   -89.009515    330.80887   -590.12203            0   -12.113761            0            0            0            0            0            0 
10245000    919.52351    42038.471    325.52896    -590.2863    495.84373   -94.442568    469.30625    -590.2863            0   -12.457388            0            0            0            0            0            0 
10246000    769.05028    43455.979    313.47213   -576.93237    477.47885   -99.453521    387.94047   -576.93237            0   -12.051035            0            0            0            0            0            0 
10247000    851.31919    42998.389    337.00748   -571.53184    513.32775   -58.204092    475.64744   -571.53184            0   -12.179283            0            0            0            0            0            0 
10248000    991.17363    42633.299    333.73366   -568.64507    508.34109   -60.303979    555.97104   -568.64507            0    -12.28358            0            0            0            0            0            0 
10249000    1097.7705    41990.331    329.11893   -574.99651    501.31196   -73.684542    598.57463   -574.99651            0    -12.47167            0            0            0            0            0            0 
10250000    913.26784    43766.291    334.54269   -545.87299     509.5734   -36.299598     546.6269   -545.87299            0   -11.965591            0            0            0            0            0            0 
10251000    1009.2242    42798.299    304.96018   -552.63538    464.51349   -88.121888    541.80487   -552.63538            0   -12.236223            0            0            0            0            0            0 
10252000    753.27133     43387.25    331.34322   -573.30805    504.69999   -68.608065     408.0308   -573.30805            0   -12.070125            0            0            0            0            0            0 
10253000    841.00489    42732.218    322.41015    -578.1281    491.09319   -87.034919    437.08402    -578.1281            0   -12.255145            0            0            0            0            0            0 
10254000    801.69112    43514.862    317.04755   -563.51385     482.9249    -80.58895    428.17997   -563.51385            0   -12.034728            0            0            0            0            0            0 
10255000    963.15248      42178.3    321.11112   -583.40809    489.11451   -94.293582    498.16775   -583.40809            0   -12.416089            0            0            0            0            0            0 
10256000    793.48582    44186.103    326.60535   -560.24273    497.48329   -62.759443    448.56995   -560.24273            0   -11.851906            0            0            0            0            0            0 
10257000      954.673    42533.391    303.61512   -570.16718    462.46471   -107.70246    484.48681   -570.16718            0   -12.312433            0            0            0            0            0            0 
10258000    1045.7566    43645.824    344.22438   -542.27351    524.32049   -17.953025    647.70197   -542.27351            0   -11.998617            0            0            0            0            0            0 
10259000    906.92779    40946.551     304.6094   -607.08715    463.97919   -143.10796    398.47617   -607.08715            0   -12.789589            0            0            0            0            0            0 
10260000    905.28888    44434.716    338.07723   -544.42989    514.95719   -29.472704    557.18595   -544.42989            0   -11.785595            0            0            0            0            0            0 
10261000    802.71747    42303.056    294.90564   -583.26164    449.19848   -134.06316    361.17071   -583.26164            0   -12.379473            0            0            0            0            0            0 
10262000    975.12452    42516.687    316.64873   -570.17363    482.31742   -87.856212    516.78171   -570.17363            0   -12.317271            0            0            0            0            0            0 
10263000    989.03718    42738.151    326.00682   -563.72276    496.57161    -67.15115     549.3079   -563.72276            0   -12.253444            0            0            0            0            0            0 
10264000    794.96356    43439.838    332.40192   -577.68547    506.31259   -71.372886    432.25679   -577.68547            0   -12.055513            0            0            0            0            0            0 
10265000    1088.2585    41989.831      326.276   -571.33945    496.98162   -74.357827    592.06843   -571.33945            0   -12.471818            0            0            0            0            0            0 
10266000    1112.1206    42946.065    336.57054   -552.50155     512.6622   -39.839343    656.70884   -552.50155            0   -12.194122            0            0            0            0            0            0 
10267000    876.74656    42542.547    319.74621   -573.03796    487.03549   -86.002466    457.96565   -573.03796            0   -12.309784            0            0            0            0            0            0 
10268000    857.78453    43498.411    312.04082   -565.20589    475.29869   -89.907198     454.2539   -565.20589            0    -12.03928            0            0            0            0            0            0 
10269000    895.88134     41863.91    308.21119    -592.4079    469.46541   -122.94249    424.03086    -592.4079            0   -12.509332            0            0            0            0            0            0 
10270000    796.07945     44424.79    330.40259   -555.60841    503.26723   -52.341183    463.43073   -555.60841            0   -11.788228            0            0            0            0            0            0 
10271000    897.62469    43163.021    328.22002   -565.56568    499.94274   -65.622943    499.42138   -565.56568            0   -12.132829            0            0            0            0            0            0 
10272000    979.26775    43092.562    324.43853    -554.8112    494.18281   -60.628396    554.80302    -554.8112            0   -12.152667            0            0            0            0            0            0 
10273000    773.65679    43010.109    318.44893    -578.1076    485.05948   -93.048127    392.23453    -578.1076            0   -12.175964            0            0            0            0            0            0 
10274000    668.40788      43440.4    308.13379   -582.04928    469.34753   -112.70175    310.75715   -582.04928            0   -12.055357            0            0            0            0            0            0 
10275000    822.51936     43237.75    310.24996   -568.62166    472.57085   -96.050811      422.612   -568.62166            0   -12.111859            0            0            0            0            0            0 
10276000    993.20776    42942.927    345.17877   -562.66181    525.77421   -36.887597    585.13712   -562.66181            0   -12.195013            0            0            0            0            0            0 
10277000      808.974    43388.447    317.64147   -562.55728    483.82956   -78.727719    433.17161   -562.55728            0   -12.069792            0            0            0            0            0            0 
10278000    971.68351     41403.05    324.23003   -590.39228    493.86521   -96.527066    490.19586   -590.39228            0   -12.648574            0            0            0            0            0            0 
10279000    926.71204    42709.702    315.06476   -572.51252    479.90473   -92.607786    484.62002   -572.51252            0   -12.261606            0            0            0            0            0            0 
10280000     762.1471    41996.322    320.50634   -597.92385    488.19332   -109.73053     357.0642   -597.92385            0   -12.469891            0            0            0            0            0            0 
10281000    900.18063    43729.381    322.22739   -560.00844     490.8148   -69.193638    504.89492   -560.00844            0   -11.975691            0            0            0            0            0            0 
10282000    877.73814    42630.338    298.17471   -577.41745    454.17791   -123.23953     422.4676   -577.41745            0   -12.284433            0            0            0            0            0            0 
10283000    962.30358    40911.807    314.59108    -598.4083    479.18323   -119.22507    454.93985    -598.4083            0    -12.80045            0            0            0            0            0            0 
10284000    1014.5135    41941.918    338.66756   -577.54318    515.85637    -61.68681    558.87065   -577.54318            0   -12.486066            0            0            0            0            0            0 
10285000    929.49456    42636.285    327.13513   -567.76653    498.29025   -69.476286    508.48946   -567.76653            0    -12.28272            0            0            0            0            0            0 
10286000    892.84888    43956.506     319.0333   -546.71137    485.94959    -60.76178    511.60842   -546.71137            0   -11.913812            0            0            0            0            0            0 
10287000     1020.289    42360.488    323.29608    -561.9844    492.44264   -69.541765    560.77673    -561.9844            0   -12.362689            0            0            0            0            0            0 
10288000    780.36814    45126.407    314.97559   -550.75119     479.7689   -70.982291    442.59543   -550.75119            0   -11.604947            0            0            0            0            0            0 
10289000    874.48164    42611.743    323.72326   -575.04232     493.0933   -81.949024    461.49633   -575.04232            0   -12.289794            0            0            0            0            0            0 
10290000    904.97239     43524.52    308.28165   -552.07394    469.57274   -82.501204     491.9395   -552.07394            0   -12.032058            0            0            0            0            0            0 
10291000    878.91623     43629.71    300.86428   -556.03046    458.27465   -97.755808    461.49382   -556.03046            0   -12.003049            0            0            0            0            0            0 
10292000    864.73164    42858.602    311.83195   -572.13382    474.98054   -97.153279    443.34615   -572.13382            0   -12.219007            0            0            0            0            0            0 
10293000    954.79198    42522.919     305.4731   -567.80094    465.29477   -102.50616    489.61109   -567.80094            0   -12.315466            0            0            0            0            0            0 
10294000    724.14891    43444.957    308.97375   -576.05534    470.62695   -105.42839    353.39246   -576.05534            0   -12.054093            0            0            0            0            0            0 
10295000     658.9384    43872.406    329.04276   -579.92487    501.19594    -78.72893    342.88229   -579.92487            0    -11.93665            0            0            0            0            0            0 
10296000     914.8993    40876.293     320.5156   -612.88719    488.20742   -124.67977    420.72721   -612.88719            0   -12.811571            0            0            0            0            0            0 
10297000    840.03115    44157.624    304.59969   -550.77394    463.96441   -86.809531     454.1652   -550.77394            0    -11.85955            0            0            0            0            0            0 
10298000     942.2144    41699.135    318.24708   -587.78782    484.75203   -103.03579    469.96165   -587.78782            0   -12.558763            0            0            0            0            0            0 
10299000     1022.071    41511.763    326.73886   -587.66625    497.68665   -89.979597    528.78879   -587.66625            0   -12.615449            0            0            0            0            0            0 
10300000    885.04167    43394.098    316.22943   -562.52364    481.67875   -80.844896    479.26117   -562.52364            0   -12.068221            0            0            0            0            0            0 
10301000     896.9886    43249.059    332.67168   -567.90301    506.72349   -61.179522     504.5899   -567.90301            0   -12.108692            0            0            0            0            0            0 
10302000    867.91818    42756.613    343.80805   -576.95606    523.68633   -53.269727    487.93049   -576.95606            0   -12.248153            0            0            0            0            0            0 
10303000    980.56162    42553.585    326.93176   -567.95133    497.98047   -69.970864    538.56606   -567.95133            0   -12.306591            0            0            0            0            0            0 
10304000    1016.9152    41625.069    313.00007   -580.44548    476.75981   -103.68566    513.64181   -580.44548            0   -12.581109            0            0            0            0            0            0 
10305000    973.05603    42181.968    327.51168   -572.39152    498.86381   -73.527709    525.07762   -572.39152            0    -12.41501            0            0            0            0            0            0 
10306000    1011.1665    42602.645    310.28136   -560.92914    472.61868   -88.310451    539.94336   -560.92914            0   -12.292419            0            0            0            0            0            0 
10307000    891.03294    41624.344    301.59656   -596.31308    459.39005   -136.92303    403.97705   -596.31308            0   -12.581329            0            0            0            0            0            0 
10308000    828.92421    43174.271    297.83498   -569.50737    453.66044   -115.84693    406.08724   -569.50737            0   -12.129667            0            0            0            0            0            0 
10309000    1072.9254    40781.545     302.9448   -593.14715    461.44368   -131.70347    506.42644   -593.14715            0   -12.841337            0            0            0            0            0            0 
10310000    895.60553    43202.558    314.15084   -567.01731    478.51265   -88.504656    475.78504   -567.01731            0   -12.121725            0            0            0            0            0            0 
10311000    786.30528    43381.841     310.1205   -567.75082    472.37366   -95.377153     402.1022   -567.75082            0    -12.07163            0            0            0            0            0            0 
10312000    784.52001    43020.054    291.93785   -575.82969    444.67797   -131.15172    361.05877   -575.82969            0   -12.173149            0            0            0            0            0            0 
10313000    843.26666    42383.152    320.68375   -590.96826    488.46354   -102.50472    418.73088   -590.96826            0   -12.356078            0            0            0            0            0            0 
10314000    853.17991    43546.818    324.31021   -571.70307    493.98734   -77.715729    464.12661   -571.70307            0   -12.025897            0            0            0            0            0            0 
10315000     940.9443    43968.584    335.79581   -559.40615    511.48215      -47.924    555.44402   -559.40615            0   -11.910539            0            0            0            0            0            0 
10316000    1024.7913    43356.766    334.52517   -549.26459    509.54671   -39.717876    608.27194   -549.26459            0   -12.078612            0            0            0            0            0            0 
10317000    905.63174    42757.773     340.0222   -581.03307    517.91976   -63.113311    501.61895   -581.03307            0   -12.247821            0            0            0            0            0            0 
10318000    984.79624    42885.462    332.78873   -562.20764    506.90178   -55.305863    560.62556   -562.20764            0   -12.211354            0            0            0            0            0            0 
10319000    722.53584     42894.44    324.25093   -586.78601    493.89705   -92.888951    359.10882   -586.78601            0   -12.208798            0            0            0            0            0            0 
10320000     920.1044    43462.827    323.27724   -559.34677    492.41393   -66.932842    516.28522   -559.34677            0   -12.049137            0            0            0            0            0            0 
10321000    1026.2886    43176.733    309.08553   -553.10748    470.79721   -82.310264    563.93173   -553.10748            0   -12.128976            0            0            0            0            0            0 
10322000    1027.8852    41677.379    314.50485   -579.66157    479.05187    -100.6097    524.16137   -579.66157            0   -12.565319            0            0            0            0            0            0 
10323000    829.83094    44102.231    310.90214   -551.84626    473.56425   -78.282009    455.45347   -551.84626            0   -11.874446            0            0            0            0            0            0 
10324000    949.52835    43245.308    312.83684   -555.97456    476.51118   -79.463382    519.39319   -555.97456            0   -12.109743            0            0            0            0            0            0 
10325000    885.17709    43101.821    318.01512   -561.44146     484.3987   -77.042753    479.37589   -561.44146            0   -12.150056            0            0            0            0            0            0 
10326000    1032.8491    41155.788    323.54541   -588.43464     492.8224   -95.612235    524.31924   -588.43464            0   -12.724566            0            0            0            0            0            0 
10327000    942.35939    42043.944    312.06429   -579.29752    475.33443   -103.96309    473.86134   -579.29752            0   -12.455766            0            0            0            0            0            0 
10328000    778.50545    42971.486    307.87066     -573.169    468.94673   -104.22227    383.66324     -573.169            0   -12.186908            0            0            0            0            0            0 
10329000    696.02692    43875.158    327.75476   -574.97936    499.23406   -75.745298    369.62435   -574.97936            0   -11.935901            0            0            0            0            0            0 
10330000    983.74133     41406.88    318.51595   -589.34201    485.16156   -104.18045    489.87818   -589.34201            0   -12.647404            0            0            0            0            0            0 
10331000    780.15277    43316.096    312.22272    -581.0544    475.57575   -105.47864    387.36012    -581.0544            0   -12.089952            0            0            0            0            0            0 
10332000    818.18208    42943.782    292.33732   -570.15355    445.28643   -124.86712    387.55296   -570.15355            0    -12.19477            0            0            0            0            0            0 
10333000    752.91008    42367.916    322.43155   -602.86354    491.12578   -111.73776    353.47981   -602.86354            0   -12.360522            0            0            0            0            0            0 
10334000    1058.4194    42330.128     312.4738   -564.24248    475.95819   -88.284282    565.12197   -564.24248            0   -12.371556            0            0            0            0            0            0 
10335000    713.80459    43380.009    345.13845   -584.14984    525.71279   -58.437044    393.15353   -584.14984            0    -12.07214            0            0            0            0            0            0 
10336000     756.9001    43168.519    323.49039   -576.57958     492.7386    -83.84098    392.67954   -576.57958            0   -12.131284            0            0            0            0            0            0 
10337000    873.67533    42628.579    319.62934   -573.68239    486.85747   -86.824913    456.33388   -573.68239            0    -12.28494            0            0            0            0            0            0 
10338000    908.03435    42406.145    311.93844   -579.85244    475.14273   -104.70971    456.86425   -579.85244            0   -12.349379            0            0            0            0            0            0 
10339000    908.11614    42585.575    322.64941   -575.60586    491.45762   -84.148241    479.85267   -575.60586            0   -12.297346            0            0            0            0            0            0 
10340000    863.81675    43438.069    315.00053    -560.7598     479.8069   -80.952903    466.27472    -560.7598            0   -12.056004            0            0            0            0            0            0 
10341000    791.65431    42692.952    312.73176   -588.43146    476.35112   -112.08033    380.82969   -588.43146            0   -12.266417            0            0            0            0            0            0 
10342000    972.50795    42243.293    312.86819   -579.34693    476.55893     -102.788    496.34993   -579.34693            0   -12.396987            0            0            0            0            0            0 
10343000    881.49959    42793.946    323.40644   -579.60212    492.61073   -86.991388    463.15762   -579.60212            0   -12.237468            0            0            0            0            0            0 
10344000     1056.076     42310.47    311.21437   -566.41279    474.03985   -92.372944    559.28383   -566.41279            0   -12.377304            0            0            0            0            0            0 
10345000    879.84022    43352.401    321.52387   -559.17512     489.7432   -69.431921    486.84732   -559.17512            0   -12.079828            0            0            0            0            0            0 
10346000    1025.1231    41801.092    321.03005   -576.36727    488.99103   -87.376234    537.56549   -576.36727            0   -12.528131            0            0            0            0            0            0 
10347000    873.84076    43332.517    343.13178   -573.42998    522.65624    -50.77374    501.45895   -573.42998            0   -12.085371            0            0            0            0            0            0 
10348000    929.69886    42635.405    326.44888   -570.35653    497.24496   -73.111575    504.96928   -570.35653            0   -12.282973            0            0            0            0            0            0 
10349000    708.26557    43517.292    328.91261    -575.7029    500.99769    -74.70521    374.79912    -575.7029            0   -12.034057            0            0            0            0            0            0 
10350000    1066.5894    41655.142     329.7142   -573.09884    502.21867   -70.880172    577.07027   -573.09884            0   -12.572026            0            0            0            0            0            0 
10351000    834.43651    43870.202    319.58357    -555.4849    486.78775   -68.697144    465.17691    -555.4849            0    -11.93725            0            0            0            0            0            0 
10352000    1084.4536    42667.435    319.59487   -556.17934    486.80497   -69.374371    605.43857   -556.17934            0   -12.273753            0            0            0            0            0            0 
10353000    722.96506    44386.284    311.04185   -562.49452    473.77706   -88.717463    379.27838   -562.49452            0   -11.798454            0            0            0            0            0            0 
[...]
14939000    882.98487    42610.606    344.87383   -579.36106    525.30973   -54.051323    494.66371   -579.36106            0   -12.290122            0            0            0            0            0            0 
14940000    1000.7433    42215.671    343.05891   -569.92305    522.54525   -47.377802     568.7521   -569.92305            0   -12.405098            0            0            0            0            0            0 
14941000    833.88609    44715.731    321.12537   -547.13231    489.13622   -57.996089    485.80861   -547.13231            0   -11.711528            0            0            0            0            0            0 
14942000    824.98352    42844.605    305.03684   -570.74951    464.63026   -106.11925    409.36726   -570.74951            0   -12.222999            0            0            0            0            0            0 
14943000    918.36277    42969.337    317.94565   -566.91496    484.29288    -82.62208    492.88253   -566.91496            0   -12.187518            0            0            0            0            0            0 
14944000    795.77525     43898.91     316.1132   -562.72963    481.50171   -81.227923    428.24377   -562.72963            0   -11.929443            0            0            0            0            0            0 
14945000    801.63061    43143.059    325.22363   -580.01359    495.37866   -84.634928    419.74885   -580.01359            0   -12.138443            0            0            0            0            0            0 
14946000    959.90929     42359.39    340.52031   -580.59015    518.67847   -61.911681     531.0898   -580.59015            0    -12.36301            0            0            0            0            0            0 
14947000    947.01412    42003.255    340.76708   -586.35907    519.05436   -67.304713    512.81189   -586.35907            0   -12.467832            0            0            0            0            0            0 
14948000     864.4285    43175.777    337.89435    -569.6506    514.67863   -54.971972    489.33654    -569.6506            0   -12.129244            0            0            0            0            0            0 
14949000    948.00931     41804.92    319.99767   -588.64581    487.41852    -101.2273    476.75679   -588.64581            0   -12.526984            0            0            0            0            0            0 
14950000     844.8195    43279.529    307.88393   -569.73412    468.96693   -100.76719    432.47236   -569.73412            0   -12.100167            0            0            0            0            0            0 
14951000    845.73642    42907.782    322.83398   -576.08611    491.73876   -84.347351    444.88573   -576.08611            0   -12.205002            0            0            0            0            0            0 
14952000    1027.1746    42918.532    311.57162   -553.67589      474.584   -79.091889    563.84005   -553.67589            0   -12.201945            0            0            0            0            0            0 
14953000    880.20344    42222.466    328.15821   -584.94807     499.8486   -85.099464     456.9046   -584.94807            0   -12.403102            0            0            0            0            0            0 
14954000      782.039    41705.488    328.52981   -607.73662    500.41461     -107.322    368.33895   -607.73662            0    -12.55685            0            0            0            0            0            0 
14955000    756.83108    44186.933    319.86573    -560.2433    487.21753   -73.025762    414.69215    -560.2433            0   -11.851684            0            0            0            0            0            0 
14956000    970.49402    41845.982    317.19372    -586.2254    483.14756   -103.07785    489.19594    -586.2254            0   -12.514691            0            0            0            0            0            0 
14957000    935.27149    43359.611    335.34287   -565.07076    510.79222   -54.278536    537.14549   -565.07076            0   -12.077819            0            0            0            0            0            0 
14958000    916.23327    41886.067    336.18776   -590.18472    512.07916   -78.105558    481.58957   -590.18472            0   -12.502715            0            0            0            0            0            0 
14959000    773.11228    44013.809    303.06119   -560.83402    461.62096    -99.21306    397.04482   -560.83402            0   -11.898301            0            0            0            0            0            0 
14960000    994.29374     42437.42    327.03486    -571.3333    498.13752   -73.195776    542.17883    -571.3333            0   -12.340278            0            0            0            0            0            0 
14961000    841.51389    42336.136    309.11146   -584.70714     470.8367   -113.87043    405.70475   -584.70714            0     -12.3698            0            0            0            0            0            0 
14962000    772.87178    44914.308    316.51948    -552.2948    482.12055   -70.174247    436.07926    -552.2948            0   -11.659749            0            0            0            0            0            0 
14963000    1005.2417    42344.674    319.30585   -566.17115    486.36473   -79.806422    540.98426   -566.17115            0   -12.367306            0            0            0            0            0            0 
14964000    972.87835    42956.028    321.23892   -557.25863    489.30917   -67.949462    541.52926   -557.25863            0   -12.191294            0            0            0            0            0            0 
14965000    765.60781      44116.3    305.11438    -553.8027    464.74837   -89.054325    403.53084    -553.8027            0   -11.870659            0            0            0            0            0            0 
14966000    908.91009    42958.886    327.65699   -573.32341    499.08514   -74.238273    495.20416   -573.32341            0   -12.190482            0            0            0            0            0            0 
14967000    971.17123    42635.252    344.96691   -570.47437     525.4515   -45.022866    558.84308   -570.47437            0   -12.283017            0            0            0            0            0            0 
14968000    849.70486     44584.17    325.48826   -544.85673    495.78174   -49.074989    503.41533   -544.85673            0   -11.746087            0            0            0            0            0            0 
14969000    930.60112    41850.917    316.22348   -587.25164    481.66969   -105.58195    462.41295   -587.25164            0   -12.513216            0            0            0            0            0            0 
14970000    887.00384    41964.099    296.07518   -586.36738    450.97993   -135.38745    407.46186   -586.36738            0   -12.479466            0            0            0            0            0            0 
14971000    963.95888    41879.042    316.71786   -581.79376    482.42273    -99.37103    489.37927   -581.79376            0   -12.504812            0            0            0            0            0            0 
14972000    852.74363    43677.881    312.73215   -560.28185    476.35172    -83.93013    459.26509   -560.28185            0   -11.989811            0            0            0            0            0            0 
14973000    828.38995    43024.816    309.00809   -569.57804    470.67924     -98.8988    420.89336   -569.57804            0   -12.171802            0            0            0            0            0            0 
14974000    894.13426    43105.502    306.58413   -565.41332    466.98709    -98.42623    463.67086   -565.41332            0   -12.149018            0            0            0            0            0            0 
14975000    886.67552    42494.738    314.97086   -575.68553     479.7617   -95.923834    453.58638   -575.68553            0   -12.323633            0            0            0            0            0            0 
14976000    996.04124    42506.647    325.87206   -569.15995    496.36635   -72.793603    544.66815   -569.15995            0    -12.32018            0            0            0            0            0            0 
14977000    863.16255    44642.994      322.677   -538.37916    491.49965   -46.879513    515.10169   -538.37916            0    -11.73061            0            0            0            0            0            0 
14978000    1095.2742    41473.031    316.84063   -572.81594    482.60972   -90.206223    572.26119   -572.81594            0   -12.627231            0            0            0            0            0            0 
14979000    855.90032    43459.841    328.55762   -570.40501    500.45697   -69.948041     472.5363   -570.40501            0   -12.049965            0            0            0            0            0            0 
14980000    1094.8139    41254.313    301.18417   -579.24323     458.7619   -120.48132    538.21551   -579.24323            0   -12.694177            0            0            0            0            0            0 
14981000    820.82883    43915.593    322.12823   -556.67686    490.66376   -66.013101    459.69811   -556.67686            0   -11.924911            0            0            0            0            0            0 
14982000    833.65227     43804.04    296.97354   -553.04747    452.34829   -100.69918    431.86873   -553.04747            0    -11.95528            0            0            0            0            0            0 
14983000    783.37755    43225.992    313.57064   -578.77383    477.62889   -101.14493    392.70156   -578.77383            0   -12.115154            0            0            0            0            0            0 
14984000    929.59107    42556.256    333.49214   -576.44408    507.97321   -68.470875    508.46992   -576.44408            0   -12.305818            0            0            0            0            0            0 
14985000    846.03602    43605.062    332.91155   -564.26866    507.08886   -57.179804     480.8442   -564.26866            0   -12.009834            0            0            0            0            0            0 
14986000    836.75802    44119.533    314.50673    -551.6746    479.05475   -72.619849    465.78217    -551.6746            0   -11.869789            0            0            0            0            0            0 
14987000    797.04026    43893.936    315.88944   -564.86201    481.16087   -83.701132    426.52262   -564.86201            0   -11.930795            0            0            0            0            0            0 
14988000    909.09056    42128.807    312.42989   -583.12939    475.89131   -107.23808     451.3121   -583.12939            0   -12.430676            0            0            0            0            0            0 
14989000    896.28615    42301.298     325.7162    -586.3838    496.12894   -90.254859    462.68293    -586.3838            0   -12.379988            0            0            0            0            0            0 
14990000    876.94304    42922.878    314.06722   -569.04236    478.38528   -90.657076    458.29712   -569.04236            0   -12.200709            0            0            0            0            0            0 
14991000    970.87141    41346.764     320.0371    -592.1713    487.47857   -104.69273    480.74287    -592.1713            0   -12.665793            0            0            0            0            0            0 
14992000    926.25088    43157.955    324.51842   -563.63934    494.30449   -69.334851    513.66088   -563.63934            0   -12.134253            0            0            0            0            0            0 
14993000    925.34687    43182.275    308.24069   -560.90927    469.51034   -91.398926    491.35603   -560.90927            0   -12.127419            0            0            0            0            0            0 
14994000     1071.456    42454.758    322.17751   -564.84371    490.73882   -74.104888    589.29686   -564.84371            0   -12.335238            0            0            0            0            0            0 
14995000    986.55853    42776.587    330.86066   -571.07888    503.96495   -67.113936    548.35321   -571.07888            0   -12.242434            0            0            0            0            0            0 
14996000    843.62616    43136.958      311.738   -574.39934    474.83744   -99.561907    431.17031   -574.39934            0   -12.140159            0            0            0            0            0            0 
14997000    1014.4225        42319    328.71258   -569.83949    500.69301   -69.146487      556.934   -569.83949            0   -12.374809            0            0            0            0            0            0 
14998000    1019.0618    43663.553    333.48216   -549.11106    507.95801   -41.153051    607.77338   -549.11106            0   -11.993746            0            0            0            0            0            0 
14999000    781.84605     44134.17    318.68731   -560.09103    485.42258   -74.668455      428.568   -560.09103            0   -11.865852            0            0            0            0            0            0 
15000000     664.2855    44871.047    320.74226   -554.00807    488.55266   -65.455405    369.25183   -554.00807            0    -11.67099            0            0            0            0            0            0 
Loop time of 1850.35 on 8 procs for 5000000 steps with 512 atoms

Pair  time (%) = 1075.97 (58.1493)
Bond  time (%) = 0.480141 (0.0259487)
Neigh time (%) = 35.324 (1.90904)
Comm  time (%) = 570.483 (30.8311)
Outpt time (%) = 0.299949 (0.0162104)
Other time (%) = 167.797 (9.06839)

Nlocal:    64 ave 68 max 60 min
Histogram: 1 1 1 1 0 1 0 1 0 2
Nghost:    1515.25 ave 1538 max 1500 min
Histogram: 2 2 0 0 0 1 0 2 0 1
Neighs:    7384.12 ave 7906 max 6992 min
Histogram: 1 2 1 1 0 0 0 1 0 2

Total # of neighbors = 59073
Ave neighs/atom = 115.377
Ave special neighs/atom = 0
Neighbor list builds = 82211
Dangerous builds = 0

Averages
Group Pressure(MPa) Volume(m3) Temperature(K) PE(J) KE(J) ET(J) ET^2(J) H(J) H^2(J^2) V^2(m6) V*H(m3*J) Hconf(J) Uext*Hconf(J^2) V*Hconf(m3*J) Uext(J)
Block1 90.318934678843177721 4.2889581609356543237e-26 319.98462321934226793 -3.9645154503386908629e-18 3.3862970019062713623e-18 -5.7821844843242826361e-19 3.5714446513490894128e-37 3.2911771138185580893e-18 1.106110191078030094e-35 1.840154159591421107e-51 1.4107962011677089295e-43 -9.5119888087702981317e-20 3.971881259895949916e-37 -4.1550802853292740961e-45 -3.9645154503386908629e-18
Block2 89.583232450567223282 4.2891284850323193208e-26 320.573107397848446 -3.97082006680319119e-18 3.3925247455687492272e-18 -5.7829532123443522203e-19 3.5750672336795394488e-37 3.2593738127221983334e-18 1.0864965636042894635e-35 1.8403595531852677539e-51 1.397208594013642757e-43 -1.3315093284655387906e-19 5.4889598850061225963e-37 -5.7913614419983883986e-45 -3.97082006680319119e-18
Block3 90.087472459789609047 4.2928052896235092965e-26 320.5598482032584684 -3.9620938638737058772e-18 3.3923844276671110705e-18 -5.6970943620660539923e-19 3.4604989779442965365e-37 3.2932532564985700151e-18 1.1080153429266942898e-35 1.8434778778762839632e-51 1.4129522444193209411e-43 -9.9131171168537456398e-20 4.1263565475742466434e-37 -4.3244799939561003603e-45 -3.9620938638737058772e-18
Block4 90.496271734396188435 4.285628203939584499e-26 319.95158549657185176 -3.9675090515181153656e-18 3.3859473740383989801e-18 -5.8156167747971667439e-19 3.6320604815505087709e-37 3.2929141545058093695e-18 1.1095296443228566153e-35 1.8373150643642647988e-51 1.4107070620086133136e-43 -9.3033219532590176361e-20 3.9321841131898307954e-37 -4.0342399650614402156e-45 -3.9675090515181153656e-18
Block5 90.860182097613446217 4.2870239138867628213e-26 320.32343806832813016 -3.9640571529498779504e-18 3.3898825732871071414e-18 -5.7417457966276994234e-19 3.5208716825218466074e-37 3.3168168418181868742e-18 1.1251710125209183195e-35 1.838497368580336188e-51 1.4212040323677562618e-43 -7.3065731468916583874e-20 3.1182405576528890149e-37 -3.2007038404583063256e-45 -3.9640571529498779504e-18
Ave_blocks 90.269218684241934625 4.2887088106835662819e-26 320.27852047706983285 -3.9657991170967160952e-18 3.3894072244935274793e-18 -5.7639189260319111958e-19 3.5519886054090562388e-37 3.2907070358726644592e-18 1.1070645508905578366e-35 1.8399608047195146435e-51 1.4105736267954084406e-43 -9.8700188620860203364e-20 4.1275244726638072085e-37 -4.3011731053607017548e-45 -3.9657991170967160952e-18
Stdev_blocks 0.42588057634532705542 2.4227445981596536445e-29 0.26877738483501106836 3.0510638328817232504e-21 2.8443868436250589334e-21 4.0806304069136411938e-21 5.7725697880387737614e-39 1.8303379059187524296e-20 1.231890861689885863e-37 2.0836399591267609449e-54 7.7117415672257859162e-46 1.9437582193732509527e-20 7.6609978891115671918e-38 8.3962295182499305515e-46 3.0510638328817232504e-21






Properties
Group rho(kg/m3) Cp(J/K) Cp_conf(J/K) Cp_id(J/K) Cp2(J/K) kT(1/Pa) aP(1/K) aP2(1/K) Cv(J/K) uJT(K/Pa) sos(m/s) Cv2(J/K) uJT2(K/Pa) sos2(m/s) CvNVT(J/K)
Block1 318.00809540200316405 1.6217264460636997425e-19 2.3190384087478987704e-21 3.1100848975156923308e-20 3.3419887383904820573e-20 3.3668347371089955555e-09 -0.0012797011810849561169 -0.0012440556851764060509 1.5549726049314939688e-19 -3.7276452650687697382e-07 986.95520291112961786 2.7111203594849801493e-20 -1.7942313619652654658e-06 1072.9960032684143698 1.6134060893286178125e-20
Block2 317.99546709259942645 1.7017125103809424052e-19 2.0792153267954478244e-21 3.1122258471984840588e-20 3.3201473798780288412e-20 3.6728323805773727669e-09 -0.0012795893177642869189 -0.0013202689884076062882 1.6404159300745811168e-19 -3.5543825435095738581e-07 942.44298862698849462 2.6675882365853933514e-20 -1.8386144485194979717e-06 1032.305557381717108 1.6267538138589489384e-20
Block3 317.72310272606040371 1.6538417546147509747e-19 2.5559522207206781945e-21 3.112177531750777831e-20 3.3677727538228456505e-20 3.4746469365053552728e-09 -0.0012762071309920706118 -0.0011324762915824919743 1.5893384497907935074e-19 -3.6575417189913711255e-07 970.86544208955558588 2.8598497646445950197e-20 -1.7374114847574632642e-06 1032.8090659940783098 1.5140986137729387538e-20
Block4 318.25518946422658928 1.7830801743811034829e-19 6.9674998427455530524e-21 3.1099649127732636836e-20 3.8067148970478186879e-20 3.4553982248764003284e-09 -0.00084778786391214952002 -0.00077895208424264017217 1.7545584983205506928e-19 -3.0554483883567423079e-07 961.31276553586633327 3.5659339381390000368e-20 -1.4063890818199593232e-06 985.26199148897876512 1.768277258717600145e-20
Block5 318.15157634179041679 1.7678132603375204354e-19 4.2086192101077798764e-21 3.1113166713174985147e-20 3.5321785923282768032e-20 3.3754230726664553126e-09 -0.001190939244467129933 -0.0011255782878693148825 1.7101106285209361267e-19 -3.3501629352176476926e-07 981.1263586302859494 3.0167508114791052106e-20 -1.6513056758601853728e-06 1044.1681956466793508 1.5819587745104001121e-20
Ave_blocks 318.02668620533597732 1.7056348291556035044e-19 3.626065001823471995e-21 3.111153972111144006e-20 3.4737604722934905284e-20 3.4690270703469157645e-09 -0.0011748449476441185334 -0.0011202662674556916785 1.6498792223276711307e-19 -3.4690361702288212621e-07 968.54055155876517347 2.9642486220666146934e-20 -1.6855904105844742795e-06 1033.5081627559734443 1.620898910037701032e-20
Stdev_blocks 0.17960760861662736221 6.2613836664755338484e-21 1.8303420444353197485e-21 9.7773658723978535425e-24 1.8246396586490351263e-21 1.104164065318234816e-10 0.00016701249497317347068 0.00018547106633663766693 7.3956173751249788659e-21 2.4285086312231756084e-08 15.724062590957176511 3.2488832620847373579e-21 1.5299245814764273118e-07 28.293299162380368017 8.3346790409318121721e-22






