LAMMPS (28 Oct 2012)
Scanning data file ...
Reading data file ...
  orthogonal box = (0 0 0) to (100 100 100)
  2 by 2 by 2 MPI processor grid
  512 atoms
Finding 1-2 1-3 1-4 neighbors ...
  0 = max # of 1-2 neighbors
  0 = max # of 1-3 neighbors
  0 = max # of 1-4 neighbors
  1 = max # of special neighbors
WARNING: Resetting reneighboring criteria during minimization (min.cpp:173)
Setting up minimization ...
Memory usage per processor = 4.05499 Mbytes
Step Temp E_pair E_mol TotEng Press 
       0       400.15    1409.7233            0    2019.2294    440.37837 
     701       400.15   -217.27527            0    392.23079    27.633475 
Loop time of 0.0528067 on 8 procs for 701 steps with 512 atoms

Minimization stats:
  Stopping criterion = energy tolerance
  Energy initial, next-to-last, final = 
         1409.72334813     -217.256630745     -217.275265106
  Force two-norm initial, final = 5034.49 0.337455
  Force max component initial, final = 2457.89 0.147661
  Final line search alpha, max atom move = 0.254892 0.0376377
  Iterations, force evaluations = 701 710

Pair  time (%) = 0.0089286 (16.9081)
Bond  time (%) = 5.82635e-05 (0.110334)
Neigh time (%) = 0.00313425 (5.93532)
Comm  time (%) = 0.0204459 (38.7183)
Outpt time (%) = 0 (0)
Other time (%) = 0.0202397 (38.328)

Nlocal:    64 ave 74 max 52 min
Histogram: 1 0 0 1 1 2 0 2 0 1
Nghost:    235.125 ave 266 max 224 min
Histogram: 4 0 2 0 0 1 0 0 0 1
Neighs:    316.25 ave 371 max 226 min
Histogram: 1 0 0 1 1 1 0 1 0 3

Total # of neighbors = 2530
Ave neighs/atom = 4.94141
Ave special neighs/atom = 0
Neighbor list builds = 60
Dangerous builds = 0
Setting up run ...
Memory usage per processor = 3.36354 Mbytes
Step Temp E_pair E_mol TotEng Press Volume 
     701       400.15   -217.27527            0    392.23079    27.633475      1000000 
 5000701    403.94249   -457.38586            0     157.8969    973.29697    49888.676 
Loop time of 1602.49 on 8 procs for 5000000 steps with 512 atoms

Pair  time (%) = 932.587 (58.1963)
Bond  time (%) = 0.462678 (0.0288725)
Neigh time (%) = 36.8397 (2.29891)
Comm  time (%) = 473.219 (29.5303)
Outpt time (%) = 5.06639e-05 (3.16158e-06)
Other time (%) = 159.379 (9.9457)

Nlocal:    64 ave 68 max 61 min
Histogram: 2 1 0 0 1 2 0 1 0 1
Nghost:    1408.62 ave 1420 max 1397 min
Histogram: 2 0 0 1 0 1 2 1 0 1
Neighs:    6651.25 ave 7174 max 6209 min
Histogram: 3 0 0 0 1 0 2 1 0 1

Total # of neighbors = 53210
Ave neighs/atom = 103.926
Ave special neighs/atom = 0
Neighbor list builds = 92151
Dangerous builds = 14
Setting up run ...
Memory usage per processor = 3.96673 Mbytes
Step Press Volume Temp PotEng KinEng TotEng Enthalpy E_vdwl E_coul E_tail E_long E_bond E_angle E_dihed E_impro E_mol 
10000000    973.29697    49888.676    403.94249   -457.38586    615.28276     157.8969     866.0436   -457.38586            0   -10.497163            0            0            0            0            0            0 
10001000    816.28989    48428.595    395.63828   -502.89005    602.63384    99.743789    676.27414   -502.89005            0   -10.813643            0            0            0            0            0            0 
10002000    873.59174    48890.308    397.23059   -481.98686    605.05922    123.07236    745.95636   -481.98686            0   -10.711521            0            0            0            0            0            0 
10003000    990.15096     48821.64    381.02491   -470.06624    580.37483    110.30859    815.30949   -470.06624            0   -10.726586            0            0            0            0            0            0 
10004000    777.48152    49407.097    397.85414   -488.16725    606.00901    117.84176     678.0575   -488.16725            0    -10.59948            0            0            0            0            0            0 
10005000    798.60825    49102.044    408.96088   -494.73804    622.92673    128.18868    700.07441   -494.73804            0   -10.665331            0            0            0            0            0            0 
10006000    794.06112    49623.397    392.07362   -474.08154    597.20416    123.12262    697.78969   -474.08154            0   -10.553279            0            0            0            0            0            0 
10007000    948.69648    49293.526    412.96193   -472.08458     629.0211    156.93653    838.95017   -472.08458            0   -10.623901            0            0            0            0            0            0 
10008000    929.22279    49261.331    420.52207   -467.37948    640.53667    173.15719    840.73499   -467.37948            0   -10.630844            0            0            0            0            0            0 
10009000    848.06904    49226.169    391.05306   -474.29869    595.64965    121.35096    730.19091   -474.29869            0   -10.638438            0            0            0            0            0            0 
10010000    935.70607    49516.202     397.1955   -472.35232    605.00578    132.65346    808.36706   -472.35232            0   -10.576125            0            0            0            0            0            0 
10011000    1012.6477    49728.059    406.24724   -457.73938    618.79334    161.05396    895.45919   -457.73938            0   -10.531067            0            0            0            0            0            0 
10012000    785.37144    49862.173    413.95319   -479.10441    630.53099    151.42658    722.53977   -479.10441            0   -10.502742            0            0            0            0            0            0 
10013000    862.67281    49113.687    403.43702   -477.06669    614.51283    137.44613    755.35515   -477.06669            0   -10.662803            0            0            0            0            0            0 
10014000    806.65998    49226.931    384.26295   -479.08498    585.30699    106.22201    685.34281   -479.08498            0   -10.638273            0            0            0            0            0            0 
10015000    892.22858    50968.975    405.95699   -452.69841    618.35123    165.65282     828.8733   -452.69841            0   -10.274673            0            0            0            0            0            0 
10016000    775.81783    51220.546    423.36384    -470.1974    644.86524    174.66784    754.20308    -470.1974            0   -10.224209            0            0            0            0            0            0 
10017000    1010.6636    48380.443    419.26665    -485.5797    638.62442    153.04472    866.14785    -485.5797            0   -10.824406            0            0            0            0            0            0 
10018000    1108.7069     49047.31    406.00881   -460.76518    618.43016    157.66498    950.72821   -460.76518            0   -10.677233            0            0            0            0            0            0 
10019000    712.54516     51865.31    382.63001   -457.79067    582.81971    125.02904    663.99987   -457.79067            0   -10.097106            0            0            0            0            0            0 
10020000     980.3357    48952.181    409.39942   -475.40563    623.59472    148.18909    848.06776   -475.40563            0   -10.697982            0            0            0            0            0            0 
10021000    840.03804    51674.401    377.47917   -449.19848    574.97399    125.77551    758.84341   -449.19848            0    -10.13441            0            0            0            0            0            0 
10022000    858.03521    49472.356    399.36299   -479.18828    608.30729    129.11901    748.19448   -479.18828            0   -10.585498            0            0            0            0            0            0 
10023000    838.96222    49735.613     408.3943   -476.79875    622.06372    145.26497    753.80025   -476.79875            0   -10.529468            0            0            0            0            0            0 
10024000    930.39403    47714.569    403.34601   -493.08672     614.3742    121.28748    768.71895   -493.08672            0   -10.975464            0            0            0            0            0            0 
10025000    716.95759    49192.775    379.02434   -500.35814    577.32757    76.969429    591.33356   -500.35814            0    -10.64566            0            0            0            0            0            0 
10026000    777.07832     49989.58     387.5121   -475.30529    590.25608    114.95079    681.47722   -475.30529            0   -10.475974            0            0            0            0            0            0 
10027000    972.61667    48391.239    382.53037   -477.97317    582.66794    104.69476    791.10593   -477.97317            0   -10.821991            0            0            0            0            0            0 
10028000     970.1041    49329.092    398.47154   -466.75762    606.94944    140.19181    838.09849   -466.75762            0   -10.616241            0            0            0            0            0            0 
10029000    754.64885    52563.556    383.75052   -447.45187    584.52646    137.07459     715.5775   -447.45187            0   -9.9629778            0            0            0            0            0            0 
10030000    874.84035    49167.394     413.0636   -474.56786    629.17597    154.60811    781.91764   -474.56786            0   -10.651155            0            0            0            0            0            0 
10031000    1048.4997    47893.259    403.10152   -485.28932    614.00179    128.71247    861.06229   -485.28932            0   -10.934515            0            0            0            0            0            0 
10032000    776.91809    52073.043    383.44379   -449.11451    584.05926    134.94475    724.96115   -449.11451            0   -10.056826            0            0            0            0            0            0 
10033000    947.13555    47138.318     413.4866   -498.74088    629.82028    131.07941    782.20102   -498.74088            0   -11.109636            0            0            0            0            0            0 
10034000    931.66433     49052.48    400.12128   -472.64931    609.46231      136.813    803.30713   -472.64931            0   -10.676107            0            0            0            0            0            0 
10035000    1016.8342      48580.5    387.43371   -473.06547    590.13668    117.07121    837.49494   -473.06547            0    -10.77983            0            0            0            0            0            0 
10036000    830.65279     50590.79    377.97329     -458.052    575.72662    117.67462    730.54253     -458.052            0    -10.35148            0            0            0            0            0            0 
10037000    911.54046    49966.026    388.16248   -464.19039    591.24674    127.05634    791.29883   -464.19039            0   -10.480912            0            0            0            0            0            0 
10038000    792.75332    50009.099    387.88277   -475.77866    590.82069    115.04203    693.22194   -475.77866            0   -10.471885            0            0            0            0            0            0 
10039000    860.99274    48844.521    413.29956    -489.0835    629.53539    140.45189    753.77768    -489.0835            0   -10.721562            0            0            0            0            0            0 
10040000    955.06189    49526.493    400.32509    -469.9759    609.77276    139.79685    829.63147    -469.9759            0   -10.573927            0            0            0            0            0            0 
10041000    853.39223     50692.03    391.69246    -459.0461    596.62358    137.57748     768.4829    -459.0461            0   -10.330806            0            0            0            0            0            0 
10042000     866.0715      49961.2    415.55623    -476.0343    632.97273    156.93843    787.98658    -476.0343            0   -10.481925            0            0            0            0            0            0 
10043000    1033.4601    48101.913    393.89292   -476.05051    599.97531     123.9248    848.91468   -476.05051            0   -10.887084            0            0            0            0            0            0 
10044000     856.3549    50169.998    382.50596   -471.84908    582.63075    110.78168    737.35769   -471.84908            0   -10.438301            0            0            0            0            0            0 
10045000    811.25528    49524.618    380.48581   -480.90861    579.55368    98.645068    684.58697   -480.90861            0   -10.574328            0            0            0            0            0            0 
10046000    939.14187    49638.297    402.27422    -472.2933    612.74166    140.44836    820.31536    -472.2933            0   -10.550111            0            0            0            0            0            0 
10047000    1069.8598    48745.497    397.62738   -466.57338    605.66362    139.09024    899.65686   -466.57338            0   -10.743342            0            0            0            0            0            0 
10048000    1079.9666    47411.513    380.22861   -485.13255    579.16191    94.029357    840.77039   -485.13255            0    -11.04562            0            0            0            0            0            0 
10049000    817.71418    50303.799    401.61311   -475.17813    611.73466    136.55653    736.45562   -475.17813            0   -10.410537            0            0            0            0            0            0 
10050000    824.37768    49172.279    407.38622   -481.68362    620.52822     138.8446     730.0283   -481.68362            0   -10.650097            0            0            0            0            0            0 
10051000    896.77859    49323.828    400.88064   -470.41327    610.61895    140.20568     785.2921   -470.41327            0   -10.617374            0            0            0            0            0            0 
10052000    1087.2401    48989.435     407.4047     -459.992    620.55637    160.56437    937.35463     -459.992            0   -10.689847            0            0            0            0            0            0 
10053000    836.89085    49392.477    402.78873   -480.05588    613.52534    133.46946    736.31426   -480.05588            0   -10.602618            0            0            0            0            0            0 
10054000    951.24831    48720.095    407.51583   -481.77067    620.72564    138.95497    814.84791   -481.77067            0   -10.748943            0            0            0            0            0            0 
10055000    897.88586    50708.438    401.85107   -464.37902    612.09712     147.7181    811.73213   -464.37902            0   -10.327464            0            0            0            0            0            0 
10056000    1009.6572    48877.024    401.69998   -467.30462    611.86698    144.56236    864.26751   -467.30462            0   -10.714432            0            0            0            0            0            0 
10057000    922.56282    50201.772    407.18703    -462.9358    620.22481    157.28901     832.7354    -462.9358            0   -10.431694            0            0            0            0            0            0 
10058000    975.84515    48921.838    411.97574   -474.03925    627.51895     153.4797    849.72065   -474.03925            0   -10.704617            0            0            0            0            0            0 
10059000    793.83939    51782.209     423.0617   -461.31485    644.40502    183.09017    782.59006   -461.31485            0    -10.11331            0            0            0            0            0            0 
10060000    1002.3233    47675.803    361.36342   -485.86025    550.42657    64.566312    761.48438   -485.86025            0   -10.984388            0            0            0            0            0            0 
10061000    770.43338     50016.61    408.11216   -483.68225    621.63397    137.95172    699.93739   -483.68225            0   -10.470313            0            0            0            0            0            0 
10062000    828.71713    48885.803    388.35455   -491.59399    591.53929    99.945304     690.7786   -491.59399            0   -10.712508            0            0            0            0            0            0 
10063000    769.15516    50710.885    379.66506    -470.4851    578.30352    107.81842    676.65961    -470.4851            0   -10.326965            0            0            0            0            0            0 
10064000    789.15289    49731.793    393.72995   -478.65185    599.72707    121.07522     693.4377   -478.65185            0   -10.530277            0            0            0            0            0            0 
10065000    856.52912    50569.832    393.50844    -454.7233    599.38967    144.66637    776.36442    -454.7233            0    -10.35577            0            0            0            0            0            0 
10066000    900.13645    50472.149     409.1223   -461.69586     623.1726    161.47674    824.05326   -461.69586            0   -10.375812            0            0            0            0            0            0 
10067000    889.55099    49330.643     389.5704   -470.84143    593.39127    122.54984    762.52558   -470.84143            0   -10.615908            0            0            0            0            0            0 
10068000    783.81407      51066.6    382.24583   -450.93443    582.23454    131.30011    715.04875   -450.93443            0   -10.255031            0            0            0            0            0            0 
10069000    1121.4384    48228.507    422.13857   -465.22087    642.99891    177.77804     966.5567   -465.22087            0   -10.858506            0            0            0            0            0            0 
10070000    805.38852    49410.357    423.65216   -493.34833     645.3044    151.95607    732.31853   -493.34833            0   -10.598781            0            0            0            0            0            0 
10071000    737.21318    50480.625    391.18715   -481.04282    595.85389    114.81107    657.55341   -481.04282            0    -10.37407            0            0            0            0            0            0 
10072000    692.84149    49150.544    415.15512     -493.575    632.36176    138.78677    635.42267     -493.575            0   -10.654807            0            0            0            0            0            0 
10073000    837.06788    50183.911    378.61316   -469.12061    576.70127    107.58065    720.21461   -469.12061            0   -10.435407            0            0            0            0            0            0 
10074000     972.6675    50053.777    405.18954   -451.46648    617.18225    165.71576    875.74649   -451.46648            0   -10.462538            0            0            0            0            0            0 
10075000    933.63654    51203.144    404.03516    -448.6045     615.4239     166.8194    864.00813    -448.6045            0   -10.227683            0            0            0            0            0            0 
10076000    979.99366    49597.488     401.1976   -468.93326    611.10176    142.16849    851.02583   -468.93326            0   -10.558792            0            0            0            0            0            0 
10077000    1070.7123    48920.669    414.54508   -457.43851    631.43255    173.99404    937.90205   -457.43851            0   -10.704873            0            0            0            0            0            0 
10078000    939.88523    49255.005    424.62382   -475.83254    646.78442    170.95189    846.10314   -475.83254            0    -10.63221            0            0            0            0            0            0 
10079000    914.16161    50465.945    409.86252   -466.78889    624.30011    157.51122    830.32872   -466.78889            0   -10.377088            0            0            0            0            0            0 
10080000    970.59912    49237.841    402.64546   -464.73184    613.30712    148.57527     845.5464   -464.73184            0   -10.635916            0            0            0            0            0            0 
10081000    875.07115     48065.39    405.15371   -496.38402    617.12767    120.74365    734.15488   -496.38402            0   -10.895356            0            0            0            0            0            0 
10082000     866.9218     49978.72    398.80354   -470.53184    607.45513    136.92329    768.81251   -470.53184            0    -10.47825            0            0            0            0            0            0 
10083000    951.94494    49073.156    408.89864   -477.05756    622.83193    145.77438     827.0639   -477.05756            0   -10.671609            0            0            0            0            0            0 
10084000    1117.0155    47271.869     405.3881   -483.64779    617.48469    133.83691    903.92047   -483.64779            0   -11.078249            0            0            0            0            0            0 
10085000    862.48293    53428.083    416.01642   -430.64839    633.67369     203.0253    875.06664   -430.64839            0   -9.8017656            0            0            0            0            0            0 
10086000    795.69246    49414.226    380.15875    -484.2773    579.05551    94.778204    668.19859    -484.2773            0   -10.597951            0            0            0            0            0            0 
10087000    850.41207    49547.637    410.23989   -478.56968    624.87491    146.30523    760.81425   -478.56968            0   -10.569415            0            0            0            0            0            0 
10088000    915.18001    50247.061    397.79055   -458.59097    605.91216    147.32119    817.96679   -458.59097            0   -10.422292            0            0            0            0            0            0 
10089000      907.537    48848.381    410.60818   -480.08882    625.43588    145.34707    791.87963   -480.08882            0   -10.720714            0            0            0            0            0            0 
10090000    828.92192    52162.127    424.90336   -446.12495    647.21022    201.08527    831.67197   -446.12495            0   -10.039651            0            0            0            0            0            0 
10091000    819.21163     50011.36    397.53569   -469.46287    605.52395    136.06108    733.56486   -469.46287            0   -10.471412            0            0            0            0            0            0 
10092000    999.89231    50763.699    389.45818   -442.58467    593.22033    150.63566    890.89241   -442.58467            0   -10.316221            0            0            0            0            0            0 
10093000    1025.4221    48136.451    396.03533   -483.31262    603.23861    119.92599     839.7936   -483.31262            0   -10.879272            0            0            0            0            0            0 
10094000    797.25158    48710.856    409.96356    -497.1689    624.45401    127.28511    693.65093    -497.1689            0   -10.750982            0            0            0            0            0            0 
10095000    914.21794    49377.166    365.10126   -466.09821    556.12003    90.021826    748.36416   -466.09821            0   -10.605905            0            0            0            0            0            0 
10096000    881.29293    50122.703    388.03726   -466.00386      591.056    125.05214    769.26688   -466.00386            0   -10.448151            0            0            0            0            0            0 
10097000    930.00844    50956.813    395.40249   -456.75473    602.27468    145.51996    836.65838   -456.75473            0   -10.277125            0            0            0            0            0            0 
10098000     978.7785    48965.988    404.98647   -474.97639    616.87294    141.89655    840.86059   -474.97639            0   -10.694965            0            0            0            0            0            0 
10099000    887.49991     49894.27    391.84053    -471.5128    596.84912    125.33632    771.13162    -471.5128            0   -10.495986            0            0            0            0            0            0 
10100000    814.01849    50901.454    411.85941    -464.8084    627.34175    162.53335    766.81631    -464.8084            0   -10.288302            0            0            0            0            0            0 
10101000    830.52567    47427.029    381.03917   -504.81181    580.39655    75.584737    650.03823   -504.81181            0   -11.042006            0            0            0            0            0            0 
10102000    792.76103    50371.916    406.67307   -469.89251    619.44195    149.54945    731.92972   -469.89251            0   -10.396459            0            0            0            0            0            0 
10103000    853.55805    50251.162    405.62602   -475.23563    617.84709    142.61146    768.15141   -475.23563            0   -10.421442            0            0            0            0            0            0 
10104000    951.01291    48631.133    402.92335   -478.68922     613.7304    135.04119    809.53302   -478.68922            0   -10.768607            0            0            0            0            0            0 
10105000    749.92832    50585.342     406.1296   -482.71071    618.61414    135.90343    689.15204   -482.71071            0   -10.352595            0            0            0            0            0            0 
10106000    842.38965    49416.164    377.34872   -476.54672    574.77528    98.228553    705.32535   -476.54672            0   -10.597535            0            0            0            0            0            0 
10107000    768.92146    52499.753    392.83126   -454.08003    598.35819    144.27816    733.00676   -454.08003            0   -9.9750859            0            0            0            0            0            0 
10108000    814.24071     49220.73    404.07761   -490.09867    615.48856    125.38989    709.87944   -490.09867            0   -10.639614            0            0            0            0            0            0 
10109000    860.05903    49144.946    422.67701   -490.44461    643.81906    153.37445    769.80337   -490.44461            0    -10.65602            0            0            0            0            0            0 
10110000    1071.4015    48193.243    400.90856    -468.7698    610.66149    141.89168    894.92517    -468.7698            0   -10.866452            0            0            0            0            0            0 
10111000    1017.4332     50776.85    398.99568   -443.75431     607.7478    163.99349    917.43153   -443.75431            0   -10.313549            0            0            0            0            0            0 
10112000    928.69602     49653.48    401.30268   -469.95722    611.26181    141.30458    813.81523   -469.95722            0   -10.546885            0            0            0            0            0            0 
10113000     893.0459    49133.064    379.55751   -475.21629     578.1397    102.92341    742.84023   -475.21629            0   -10.658597            0            0            0            0            0            0 
10114000    909.24141    48958.828    413.23755   -483.78172    629.44093    145.65921    794.87056   -483.78172            0    -10.69653            0            0            0            0            0            0 
10115000    726.24867    54115.237    387.38783   -437.00843     590.0668    153.05836    726.22487   -437.00843            0    -9.677303            0            0            0            0            0            0 
10116000    961.90336    48962.159    405.44027    -471.0885    617.56416    146.47566    833.33514    -471.0885            0   -10.695802            0            0            0            0            0            0 
10117000    1038.6844    48316.376    410.80323   -471.63889    625.73298    154.09409    885.99762   -471.63889            0   -10.838759            0            0            0            0            0            0 
10118000    930.04381    48861.787    395.81317   -470.69533    602.90022     132.2049    794.95322   -470.69533            0   -10.717773            0            0            0            0            0            0 
10119000    777.29532    49880.832    394.14118   -481.50613    600.35345    118.84732    684.29917   -481.50613            0   -10.498813            0            0            0            0            0            0 
10120000    847.85769    51022.624    406.82573   -459.33362    619.67448    160.34086    791.24248   -459.33362            0   -10.263869            0            0            0            0            0            0 
10121000    957.26276    49041.164    408.97074   -473.41198    622.94176    149.52978    834.17854   -473.41198            0   -10.678571            0            0            0            0            0            0 
10122000    873.51351    50182.561    400.28953   -464.05572    609.71859    145.66287    784.95349   -464.05572            0   -10.435688            0            0            0            0            0            0 
10123000    946.58165    50633.186    408.00887   -458.24139    621.47664    163.23526    862.22247   -458.24139            0   -10.342812            0            0            0            0            0            0 
10124000     854.1825     47822.51    377.35073   -499.44595    574.77834    75.332386    671.07536   -499.44595            0   -10.950691            0            0            0            0            0            0 
10125000    1008.2903    50546.808    426.31582   -449.15148    649.36168     200.2102    943.49491   -449.15148            0   -10.360487            0            0            0            0            0            0 
10126000    990.47866    50338.276    419.78161   -451.54606     639.4088    187.86273    915.00493   -451.54606            0   -10.403407            0            0            0            0            0            0 
10127000    948.09294    47539.159    386.88941   -490.88126     589.3076    98.426347    755.74855   -490.88126            0   -11.015961            0            0            0            0            0            0 
10128000     792.0125      50512.8    385.55665   -467.44299    587.27756    119.83457    703.29226   -467.44299            0   -10.367462            0            0            0            0            0            0 
10129000    905.42384    50088.412    394.67112   -460.28099    601.16066    140.87966    802.28102   -460.28099            0   -10.455303            0            0            0            0            0            0 
10130000    920.56466    49186.014    405.59161   -472.68061    617.79467    145.11406    805.46047   -472.68061            0   -10.647123            0            0            0            0            0            0 
10131000    763.07276    51967.259     394.5948   -452.43537    601.04441    148.60904    726.93363   -452.43537            0   -10.077298            0            0            0            0            0            0 
10132000    902.80264    49698.611    381.70257   -470.32475    581.40705    111.08229    765.43659   -470.32475            0   -10.537307            0            0            0            0            0            0 
10133000    980.10949    49911.644    390.61051   -458.01547    594.97556     136.9601    850.39173   -458.01547            0   -10.492332            0            0            0            0            0            0 
10134000    949.47799    48828.035    391.17172   -474.63255    595.83039    121.19784    797.32757   -474.63255            0   -10.725182            0            0            0            0            0            0 
10135000    886.70007    49759.909    404.78778   -474.97675    616.57029    141.59354    785.06933   -474.97675            0   -10.524327            0            0            0            0            0            0 
10136000     900.5172    50429.555    399.72788   -463.45808    608.86308      145.405    807.70238   -463.45808            0   -10.384576            0            0            0            0            0            0 
10137000    976.54983    49647.913    394.29852   -456.89151    600.59311     143.7016    850.78607   -456.89151            0   -10.548068            0            0            0            0            0            0 
10138000    1034.0278    48770.139    398.61387   -464.32529    607.16623    142.84094    878.30611   -464.32529            0   -10.737914            0            0            0            0            0            0 
10139000    723.54287    50667.359    377.27849   -472.05148    574.66831    102.61683    637.26541   -472.05148            0   -10.335837            0            0            0            0            0            0 
10140000    908.12049    48744.307    401.40688   -487.34046    611.42053    124.08007    769.64996   -487.34046            0   -10.743604            0            0            0            0            0            0 
10141000    885.56659    51609.684    416.97215   -451.94811    635.12946    183.18134    849.72456   -451.94811            0   -10.147118            0            0            0            0            0            0 
10142000    897.06514    48686.351    393.60453   -482.38818    599.53603    117.14785    754.10042   -482.38818            0   -10.756393            0            0            0            0            0            0 
10143000    936.86711    50797.265    396.93813   -452.25527    604.61375    152.35847    846.41399   -452.25527            0   -10.309404            0            0            0            0            0            0 
10144000    937.93009    50475.483    405.84292   -464.27659    618.17748    153.90088    844.34232   -464.27659            0   -10.375127            0            0            0            0            0            0 
10145000    878.17666     49478.84    433.11273   -478.84685    659.71468    180.86783    814.55846   -478.84685            0   -10.584111            0            0            0            0            0            0 
10146000    688.56312    49362.353    399.04639   -498.42895    607.82504    109.39609    605.09219   -498.42895            0   -10.609088            0            0            0            0            0            0 
10147000    944.62615    47185.278    394.76161    -492.6267     601.2985    108.67179    758.71523    -492.6267            0   -11.098579            0            0            0            0            0            0 
10148000    730.82674    51720.734    377.19616   -459.25386     574.5429    115.28904    666.54716   -459.25386            0   -10.125331            0            0            0            0            0            0 
10149000    869.19382    50500.554     393.6555   -465.58272    599.61366    134.03094    774.19112   -465.58272            0   -10.369976            0            0            0            0            0            0 
10150000    957.59896    49359.845    398.57479   -469.32957     607.1067    137.77713    827.11692   -469.32957            0   -10.609627            0            0            0            0            0            0 
10151000    955.13713    49092.692    407.43416   -473.81373    620.60124    146.78751    830.63376   -473.81373            0   -10.667363            0            0            0            0            0            0 
10152000     789.8231    51130.829    393.06575   -461.18249    598.71537    137.53288    726.49661   -461.18249            0   -10.242149            0            0            0            0            0            0 
10153000    1033.3236    47333.693    394.97744   -489.65346    601.62723    111.97377    825.29089   -489.65346            0    -11.06378            0            0            0            0            0            0 
10154000    712.33501    50978.253    413.14223   -480.63241    629.29574    148.66333    678.25985   -480.63241            0   -10.272803            0            0            0            0            0            0 
10155000    980.66988     49793.69     406.6135   -462.57893    619.35121    156.77228    868.92484   -462.57893            0   -10.517187            0            0            0            0            0            0 
10156000    938.18646    48151.226    408.58167    -491.3638    622.34912    130.98532    789.81385    -491.3638            0   -10.875934            0            0            0            0            0            0 
10157000    1004.9911    49120.242     395.5628   -463.08713    602.51885    139.43172     859.3755   -463.08713            0    -10.66138            0            0            0            0            0            0 
10158000     833.3987    49972.609     399.9266   -473.49745    609.16577    135.66831    743.04865   -473.49745            0   -10.479532            0            0            0            0            0            0 
10159000    773.61436    48243.181    403.29182   -508.83102    614.29165    105.46063    649.75815   -508.83102            0   -10.855203            0            0            0            0            0            0 
10160000    906.40634    49774.321    405.18632   -464.33369    617.17735    152.84365    810.81074   -464.33369            0    -10.52128            0            0            0            0            0            0 
10161000    973.07338     49710.66    389.38218   -462.27866    593.10457    130.82591    836.28366   -462.27866            0   -10.534753            0            0            0            0            0            0 
10162000    874.34698     49047.82    397.13365   -482.58926    604.91156     122.3223    747.75332   -482.58926            0   -10.677122            0            0            0            0            0            0 
10163000    668.04994    51571.948    405.81747   -475.17333    618.13871    142.96538    645.42175   -475.17333            0   -10.154543            0            0            0            0            0            0 
10164000    879.42084    49029.599    425.43471   -489.04102    648.01957    158.97855    787.80527   -489.04102            0    -10.68109            0            0            0            0            0            0 
10165000    993.83323    50147.477    436.88712   -459.09872    665.46382     206.3651    933.20455   -459.09872            0   -10.442989            0            0            0            0            0            0 
10166000    878.21317    50070.701    433.05645   -475.65749    659.62895    183.97146     825.2689   -475.65749            0   -10.459002            0            0            0            0            0            0 
10167000    813.08134    50353.426     397.3845    -462.7955    605.29365    142.49816    739.58693    -462.7955            0   -10.400276            0            0            0            0            0            0 
10168000    865.86497    52178.699    381.78674   -442.86653    581.53525    138.66872    797.56841   -442.86653            0   -10.036462            0            0            0            0            0            0 
10169000    901.22523     49279.89    402.08623   -480.96841    612.45531     131.4869    779.19444   -480.96841            0   -10.626841            0            0            0            0            0            0 
10170000    823.02807    49054.306     385.9767   -483.24807    587.91736    104.66929    693.46912   -483.24807            0    -10.67571            0            0            0            0            0            0 
10171000    874.94409    51702.358    422.92922   -450.05824    644.20323    194.14498    853.87545   -450.05824            0    -10.12893            0            0            0            0            0            0 
10172000    930.38893    48928.235    383.65709    -478.5953    584.38415    105.78885    769.68473    -478.5953            0   -10.703218            0            0            0            0            0            0 
10173000    892.50813     49369.45    414.82634   -474.81838    631.86096    157.04258    799.65093   -474.81838            0   -10.607563            0            0            0            0            0            0 
10174000    954.86002    49457.928     404.7319   -466.02211    616.48517    150.46306    839.19705   -466.02211            0   -10.588586            0            0            0            0            0            0 
10175000    775.60059    48658.645    378.65052   -492.45338    576.75818    84.304799    634.69923   -492.45338            0   -10.762518            0            0            0            0            0            0 
10176000    803.49438    51971.871    401.61542   -449.32714    611.73818    162.41104    771.42478   -449.32714            0   -10.076404            0            0            0            0            0            0 
10177000    963.97832    48762.906    405.30781   -485.51135     617.3624    131.85104    817.39095   -485.51135            0   -10.739506            0            0            0            0            0            0 
10178000    877.14001    50275.096    389.58389    -464.4996    593.41181    128.91221    772.04065    -464.4996            0    -10.41648            0            0            0            0            0            0 
10179000    1044.1844    48451.174     381.7234   -473.15089    581.43877    108.28788     846.1197   -473.15089            0   -10.808604            0            0            0            0            0            0 
10180000    767.06475    53026.156    401.89858   -444.22395    612.16948    167.94553    761.14132   -444.22395            0   -9.8760609            0            0            0            0            0            0 
10181000    1093.1411    48752.323    382.63836   -454.28428    582.83243    128.54815    905.77437   -454.28428            0   -10.741838            0            0            0            0            0            0 
10182000    854.26694    51124.391    406.61554   -460.50847    619.35433    158.84586    795.78456   -460.50847            0   -10.243438            0            0            0            0            0            0 
10183000    964.46002    48995.119     406.4816   -468.52432    619.15031    150.62599    839.77468   -468.52432            0   -10.688607            0            0            0            0            0            0 
10184000    641.67924    51355.574    405.49891   -472.43629    617.65348    145.21718    625.81463   -472.43629            0   -10.197326            0            0            0            0            0            0 
10185000    793.49572    49901.921    394.00362   -473.19495    600.14392    126.94897    704.43002   -473.19495            0   -10.494377            0            0            0            0            0            0 
10186000    944.82748    49266.293    370.82835   -468.73117    564.84349    96.112319     774.9693   -468.73117            0   -10.629774            0            0            0            0            0            0 
10187000    969.61366    50510.523    406.41318   -447.62962    619.04609    171.41647    885.67672   -447.62962            0    -10.36793            0            0            0            0            0            0 
10188000    796.04311    50870.848    417.72711   -462.36951    636.27939    173.90989    764.49359   -462.36951            0   -10.294492            0            0            0            0            0            0 
10189000    904.38622     49687.83    397.03426   -474.18616    604.76017    130.57401    785.93391   -474.18616            0   -10.539594            0            0            0            0            0            0 
10190000     823.3855    48213.776    386.37835   -499.53323    588.52917    88.995934    667.95819   -499.53323            0   -10.861824            0            0            0            0            0            0 
10191000    986.76239    49442.812    405.11832   -470.59002    617.07376    146.48374    858.01116   -470.59002            0   -10.591824            0            0            0            0            0            0 
10192000    951.51306    48744.126    395.40665   -470.91712      602.281    131.36389    807.77842   -470.91712            0   -10.743644            0            0            0            0            0            0 
10193000    1115.1315    50016.731    429.64665   -444.13444    654.43517    210.30073    1023.7253   -444.13444            0   -10.470287            0            0            0            0            0            0 
10194000    1019.9948    48614.494    442.34009   -478.20925    673.76974    195.56049    918.72917   -478.20925            0   -10.772292            0            0            0            0            0            0 
10195000    826.44676    50335.179    399.48735   -465.74573    608.49671    142.75098    749.43477   -465.74573            0   -10.404047            0            0            0            0            0            0 
10196000    828.34488    50592.596    386.56383   -464.76933    588.81169    124.04235    735.22926   -464.76933            0    -10.35111            0            0            0            0            0            0 
10197000    852.32361    48865.461    410.27369   -486.03622     624.9264    138.89019    746.30085   -486.03622            0   -10.716967            0            0            0            0            0            0 
10198000    860.86134     50803.14    402.32859   -465.41829    612.82446    147.40617     785.2284   -465.41829            0   -10.308212            0            0            0            0            0            0 
10199000    915.78198    51789.795    395.32841   -442.35148    602.16184    159.81037    851.50145   -442.35148            0   -10.111829            0            0            0            0            0            0 
10200000    1133.3618    48731.623     422.1497   -461.55097    643.01587     181.4649    986.94596   -461.55097            0   -10.746401            0            0            0            0            0            0 
10201000    1063.6505    49045.677    428.81407   -466.23874    653.16698    186.92825    947.73708   -466.23874            0   -10.677588            0            0            0            0            0            0 
10202000    846.24142    50018.949    405.80587   -482.58992    618.12104    135.53112    752.84313   -482.58992            0   -10.469823            0            0            0            0            0            0 
10203000    835.42341     49541.89     397.3009   -486.18238    605.16633    118.98395    722.59211   -486.18238            0   -10.570641            0            0            0            0            0            0 
10204000    885.03406    49076.863    389.25138   -484.46005    592.90533    108.44528    741.89576   -484.46005            0   -10.670803            0            0            0            0            0            0 
10205000    992.75537    49614.214    415.66051   -465.55091    633.13156    167.58066    885.91107   -465.55091            0   -10.555232            0            0            0            0            0            0 
10206000    805.62529    51048.263    448.02984   -468.83549    682.43633    213.60084    813.37804   -468.83549            0   -10.258714            0            0            0            0            0            0 
10207000    824.74301     48019.22    404.54624   -498.59834    616.20238    117.60403    695.18069   -498.59834            0   -10.905832            0            0            0            0            0            0 
10208000    779.37197    49299.623    385.56798   -486.36972    587.29482     100.9251    661.28141   -486.36972            0   -10.622587            0            0            0            0            0            0 
10209000    869.54938    50290.687    396.75114   -468.55645    604.32893    135.77248    773.53311   -468.55645            0   -10.413251            0            0            0            0            0            0 
10210000    788.69825    50498.734    385.79578   -466.74778    587.64179    120.89401    701.74837   -466.74778            0    -10.37035            0            0            0            0            0            0 
10211000    634.82663    50177.666    366.92846   -493.71312    558.90321    65.190083    529.74972   -493.71312            0   -10.436706            0            0            0            0            0            0 
10212000    1022.0471    48817.543    385.30201   -466.88966    586.88969    120.00003    847.65032   -466.88966            0   -10.727487            0            0            0            0            0            0 
10213000    714.35463    50993.385    387.50465   -470.57192    590.24473    119.67281     650.9285   -470.57192            0   -10.269755            0            0            0            0            0            0 
10214000    865.32359    49817.936    397.83685   -469.80627    605.98268    136.17641    764.87164   -469.80627            0   -10.512068            0            0            0            0            0            0 
10215000     957.0276    49634.601    419.35521   -463.93532    638.75931    174.82398    867.58731   -463.93532            0   -10.550897            0            0            0            0            0            0 
10216000    779.05892    50832.162    396.43431   -470.69026    603.84633    133.15607    710.69967   -470.69026            0   -10.302327            0            0            0            0            0            0 
10217000    800.90713    49049.897    385.42687   -488.69282    587.07987    98.387055    671.30991   -488.69282            0    -10.67667            0            0            0            0            0            0 
10218000    835.73646    51450.159    413.39224   -463.79215    629.67655     165.8844    792.97741   -463.79215            0    -10.17858            0            0            0            0            0            0 
10219000    908.57666    50724.085    383.55295   -454.36203    584.22552     129.8635    801.99103   -454.36203            0   -10.324278            0            0            0            0            0            0 
10220000    763.45731     49840.98    381.92088    -486.0844    581.73956    95.655161    650.59668    -486.0844            0   -10.507208            0            0            0            0            0            0 
10221000    990.78555     48139.51    406.63762   -484.26338    619.38795    135.12457     830.7208   -484.26338            0   -10.878581            0            0            0            0            0            0 
10222000    1017.4996    48475.528     375.4347    -471.9365    571.85985    99.923355    819.26086    -471.9365            0   -10.803174            0            0            0            0            0            0 
10223000    855.34906    49621.012     393.8246   -480.28111    599.87124    119.59013    738.58192   -480.28111            0   -10.553786            0            0            0            0            0            0 
10224000    928.52109    50217.041    397.04493    -463.2993    604.77643    141.47713    821.49258    -463.2993            0   -10.428523            0            0            0            0            0            0 
10225000    925.39531    48929.542    414.82357   -484.66914    631.85675    147.18761    807.53784   -484.66914            0   -10.702932            0            0            0            0            0            0 
10226000    941.56389    48965.866    428.14765   -481.13551    652.15191     171.0164    843.40311   -481.13551            0   -10.694992            0            0            0            0            0            0 
10227000    1008.0683    49157.523    421.02129   -467.13084    641.29707    174.16624    896.86255   -467.13084            0   -10.653294            0            0            0            0            0            0 
10228000    932.11694    48998.199    408.21719   -480.97479    621.79395    140.81916    806.89918   -480.97479            0   -10.687935            0            0            0            0            0            0 
10229000    1069.1947    49316.014    420.88795   -459.29944    641.09397    181.79453    950.78443   -459.29944            0   -10.619057            0            0            0            0            0            0 
10230000    902.28374    47698.257    406.15103   -495.52793    618.64678    123.11885    750.77463   -495.52793            0   -10.979218            0            0            0            0            0            0 
10231000    903.01425    50650.512    407.93404    -464.4715    621.36265    156.89115    823.93492    -464.4715            0   -10.339274            0            0            0            0            0            0 
10232000    858.53218    51205.373    396.33668   -461.84101    603.69762    141.85661    782.98942   -461.84101            0   -10.227238            0            0            0            0            0            0 
10233000    936.40015    49614.048    395.87078   -471.00313    602.98797    131.98484     809.5359   -471.00313            0   -10.555267            0            0            0            0            0            0 
10234000    899.07936    48313.203     410.8444   -494.90489    625.79569     130.8908    764.38078   -494.90489            0   -10.839471            0            0            0            0            0            0 
10235000    683.76753    51644.151    403.95724   -467.28783    615.30522    148.01739    663.01535   -467.28783            0   -10.140346            0            0            0            0            0            0 
10236000    987.59589    47695.377    412.15977   -488.92875    627.79927    138.87052    825.83052   -488.92875            0   -10.979881            0            0            0            0            0            0 
10237000     856.9584    50274.422    392.60664   -467.69006    598.01606      130.326    758.64864   -467.69006            0    -10.41662            0            0            0            0            0            0 
10238000    847.38212     48750.72    395.11343   -492.30217    601.83438    109.53221    712.00331   -492.30217            0   -10.742191            0            0            0            0            0            0 
10239000     734.8524    49293.655    378.05851   -489.46588    575.85643    86.390545    614.67402   -489.46588            0   -10.623873            0            0            0            0            0            0 
10240000      833.881    51220.893    378.05944   -455.46119    575.85785    120.39666    743.30926   -455.46119            0   -10.224139            0            0            0            0            0            0 
10241000    845.60336    50117.025    386.58012   -463.99366     588.8365    124.84284     742.8989   -463.99366            0   -10.449334            0            0            0            0            0            0 
10242000    926.08926    50870.574     402.4668   -445.23295    613.03498    167.80204    854.86316   -445.23295            0   -10.294548            0            0            0            0            0            0 
10243000    1035.4023    48278.521    430.04419   -479.03435     655.0407    176.00635    905.02553   -479.03435            0   -10.847257            0            0            0            0            0            0 
10244000    954.19707     48722.19    410.42192    -485.7155    625.15218    139.43669    817.45397    -485.7155            0   -10.748481            0            0            0            0            0            0 
10245000    877.41958    49795.886     392.1912   -472.41047    597.38326    124.97279    762.17413   -472.41047            0   -10.516723            0            0            0            0            0            0 
10246000    955.35947    48515.664    391.68536   -479.63426    596.61276     116.9785    792.94423   -479.63426            0   -10.794236            0            0            0            0            0            0 
10247000    893.26247    49574.123    399.49455   -471.44169    608.50768    137.06599     782.8838   -471.44169            0   -10.563768            0            0            0            0            0            0 
10248000    866.05517    50439.837    381.29456   -466.77974    580.78557    114.00583    751.08752   -466.77974            0   -10.382459            0            0            0            0            0            0 
10249000    992.34232    48120.927    382.34213   -480.19781    582.38121     102.1834    798.60365   -480.19781            0   -10.882782            0            0            0            0            0            0 
10250000     908.8996    50346.987    403.27273   -467.90293    614.26257    146.35964     813.7275   -467.90293            0   -10.401606            0            0            0            0            0            0 
10251000    925.35886    50491.345    400.73519   -460.68187    610.39742    149.71555    831.11695   -460.68187            0   -10.371868            0            0            0            0            0            0 
10252000    850.26038    48189.509    393.41138   -492.06195    599.24183    107.17988    704.73825   -492.06195            0   -10.867294            0            0            0            0            0            0 
10253000    808.76275    50542.208    418.20924   -468.92209    637.01377    168.09168    764.23577   -468.92209            0    -10.36143            0            0            0            0            0            0 
10254000    992.40494    48062.621    377.44736   -478.34728    574.92553     96.57825    792.19856   -478.34728            0   -10.895984            0            0            0            0            0            0 
10255000    858.88725    50303.487    431.57043    -472.0764    657.36546    185.28906    815.39001    -472.0764            0   -10.410601            0            0            0            0            0            0 
10256000    789.71008    49814.093    380.77775   -478.81383    579.99835    101.18452    674.89898   -478.81383            0   -10.512879            0            0            0            0            0            0 
10257000    955.08324     47681.04     367.2473   -484.40985    559.38887    74.979015     739.1239   -484.40985            0   -10.983182            0            0            0            0            0            0 
10258000     1084.409    48916.694     400.0427   -461.77454    609.34262    147.56808    921.18523   -461.77454            0   -10.705743            0            0            0            0            0            0 
10259000    965.98969    49331.376    434.47109   -472.86911    661.78373    188.91461    883.89349   -472.86911            0    -10.61575            0            0            0            0            0            0 
10260000    869.14253    49708.942    406.59077    -474.6598     619.3166     144.6568    774.74509    -474.6598            0   -10.535118            0            0            0            0            0            0 
10261000    772.23193    51943.617    382.93596      -449.75    583.28573    133.53573    718.53568      -449.75            0   -10.081885            0            0            0            0            0            0 
10262000    788.39295     48456.29    408.90686    -504.4568    622.84445    118.38765    675.53335    -504.4568            0   -10.807463            0            0            0            0            0            0 
10263000    882.93122    51664.678    401.16297   -444.61916      611.049    166.42984    831.69762   -444.61916            0   -10.136317            0            0            0            0            0            0 
10264000    989.06407    49007.123    394.61139   -475.34285    601.06968    125.72684    832.62934   -475.34285            0   -10.685988            0            0            0            0            0            0 
10265000    882.85338    49382.458     381.8369   -470.09348    581.61165    111.51817    747.34256   -470.09348            0   -10.604769            0            0            0            0            0            0 
10266000    859.10991     48606.29     368.4714   -486.34173    561.25341    74.911683    683.91139   -486.34173            0   -10.774111            0            0            0            0            0            0 
10267000    893.69478    49815.839    392.74031   -463.08846    598.21966     135.1312      784.412   -463.08846            0   -10.512511            0            0            0            0            0            0 
10268000    920.69341    48256.056    376.32879   -487.69716    573.22172    85.524568    733.47644   -487.69716            0   -10.852307            0            0            0            0            0            0 
10269000     676.2012    53298.293    412.12221   -456.75308    627.74205    170.98897    696.60078   -456.75308            0   -9.8256345            0            0            0            0            0            0 
10270000    847.49442     49513.68    383.56325   -473.17588    584.24122    111.06534    723.04634   -473.17588            0   -10.576664            0            0            0            0            0            0 
10271000    865.33839    48378.182     393.6307   -495.85635    599.57589    103.71954    714.25572   -495.85635            0   -10.824912            0            0            0            0            0            0 
10272000    857.44582    50890.249    387.18321   -456.36004    589.75512    133.39508      769.776   -456.36004            0   -10.290568            0            0            0            0            0            0 
10273000    997.83302    48144.408    416.38047   -481.65575    634.22821    152.57246    853.18775   -481.65575            0   -10.877474            0            0            0            0            0            0 
10274000    912.92563    50107.514    400.53261   -464.44596    610.08884    145.64289    812.77853   -464.44596            0   -10.451318            0            0            0            0            0            0 
10275000    946.41428    49098.099    411.30362   -471.44978    626.49517    155.04539    832.72099   -471.44978            0   -10.666188            0            0            0            0            0            0 
10276000    869.18116    48335.022    405.44953   -491.47363    617.57827    126.10464    738.80498   -491.47363            0   -10.834578            0            0            0            0            0            0 
10277000    795.53439    50271.217    392.38886   -473.88368    597.68433    123.80065    707.04999   -473.88368            0   -10.417284            0            0            0            0            0            0 
10278000    876.97049    49796.356    404.58366   -470.97778    616.25938     145.2816     782.1628   -470.97778            0   -10.516624            0            0            0            0            0            0 
10279000    741.15978    52539.204    405.05764   -451.72209    616.98135    165.25926    733.15842   -451.72209            0   -9.9675957            0            0            0            0            0            0 
10280000    1033.4553    48751.245    408.67513   -469.95687    622.49147     152.5346    887.30777   -469.95687            0   -10.742075            0            0            0            0            0            0 
10281000    918.79717    49299.301    432.27758   -478.38695     658.4426    180.05565     840.6522   -478.38695            0   -10.622657            0            0            0            0            0            0 
10282000    851.38989    49999.123    400.95031    -470.5831    610.72508    140.14198     760.9635    -470.5831            0   -10.473975            0            0            0            0            0            0 
10283000    974.05233    48902.408    397.99474   -475.98401    606.22317    130.23916    824.92496   -475.98401            0    -10.70887            0            0            0            0            0            0 
10284000     942.3183    49109.866    408.22404   -481.22619    621.80439     140.5782    815.48261   -481.22619            0   -10.663632            0            0            0            0            0            0 
10285000    966.61955    50876.786    393.93237   -450.38827    600.03539    149.64712    866.86504   -450.38827            0   -10.293291            0            0            0            0            0            0 
10286000    936.17097    48614.861    391.11332   -488.97072    595.74144    106.77072    770.51395   -488.97072            0   -10.772211            0            0            0            0            0            0 
10287000    910.20143    49635.858     407.7443   -466.58423    621.07364    154.48941    813.37338   -466.58423            0   -10.550629            0            0            0            0            0            0 
10288000    766.69571      49620.2    393.27603   -480.55566    599.03566       118.48    673.30681   -480.55566            0   -10.553959            0            0            0            0            0            0 
10289000    926.10267    50104.521    372.55222   -450.77057    567.46928    116.69871    793.42328   -450.77057            0   -10.451942            0            0            0            0            0            0 
10290000    863.90953    50428.545    387.91355   -464.90155    590.86756    125.96601    761.32707   -464.90155            0   -10.384784            0            0            0            0            0            0 
10291000    821.64819    48478.302    387.31102   -494.22569     589.9498    95.724103    676.63456   -494.22569            0   -10.802555            0            0            0            0            0            0 
10292000    810.19838    49435.557    400.49299   -482.51497    610.02849    127.51352    711.63973   -482.51497            0   -10.593378            0            0            0            0            0            0 
10293000    751.72439    49895.463     388.1762   -477.22866    591.26763    114.03897    661.04937   -477.22866            0   -10.495735            0            0            0            0            0            0 
10294000    920.60399    50497.458    414.17107   -465.44467    630.86286     165.4182    843.40035   -465.44467            0   -10.370612            0            0            0            0            0            0 
10295000    991.22457    50610.165    373.56604    -451.1153    569.01353    117.89823    849.51846    -451.1153            0   -10.347517            0            0            0            0            0            0 
10296000    977.35834    48912.769     392.8744   -477.33377     598.4239    121.09013    818.28143   -477.33377            0   -10.706602            0            0            0            0            0            0 
10297000    830.89121    50477.681    419.55604   -471.79785    639.06522    167.26737    778.94056   -471.79785            0   -10.374675            0            0            0            0            0            0 
10298000    1001.3789    49518.969    398.50009   -461.25273    606.99293    145.74019     868.9194   -461.25273            0   -10.575534            0            0            0            0            0            0 
10299000     949.9099    48399.859    433.94566   -490.48874     660.9834    170.49466    841.00024   -490.48874            0   -10.820064            0            0            0            0            0            0 
10300000    911.76838    50534.567    402.80774   -461.19273     613.5543    152.36157    824.33015   -461.19273            0   -10.362997            0            0            0            0            0            0 
10301000    1011.9599    47961.945    384.09844   -478.27194    585.05641    106.78447    814.62594   -478.27194            0   -10.918855            0            0            0            0            0            0 
10302000    898.12044    49547.774    417.26651   -472.27214    635.57781    163.30567    812.29061   -472.27214            0   -10.569386            0            0            0            0            0            0 
10303000    952.91657    49659.491    373.64586    -455.6423    569.13511    113.49281    803.62619    -455.6423            0   -10.545608            0            0            0            0            0            0 
10304000    911.99417    48626.149    402.83531   -486.10055     613.5963    127.49574    774.24781   -486.10055            0    -10.76971            0            0            0            0            0            0 
10305000    932.65603    50172.671      410.137   -465.05832     624.7182    159.65988     842.1001   -465.05832            0   -10.437745            0            0            0            0            0            0 
10306000    728.22758    50335.475     381.6289   -470.58504    581.29483    110.70979    645.29531   -470.58504            0   -10.403985            0            0            0            0            0            0 
10307000    831.12157     49377.09    371.37698   -481.86028    565.67917    83.818881    682.32134   -481.86028            0   -10.605922            0            0            0            0            0            0 
10308000    851.69168    47933.923    405.83929    -503.3886    618.17195    114.78334    710.17297    -503.3886            0   -10.925239            0            0            0            0            0            0 
10309000    755.17104    51182.202    406.20931    -472.0321    618.73556    146.70346    710.39327    -472.0321            0   -10.231868            0            0            0            0            0            0 
10310000    968.06009    49305.319    370.36805   -461.33265    564.14237    102.80972    798.91027   -461.33265            0    -10.62136            0            0            0            0            0            0 
10311000    924.28452    51588.093    403.29334   -446.11457    614.29397     168.1794    863.57356   -446.11457            0   -10.151365            0            0            0            0            0            0 
10312000    916.18076     49100.29    412.36458   -482.99865    628.11123    145.11258    801.16889   -482.99865            0   -10.665712            0            0            0            0            0            0 
10313000    852.08791    50527.896    405.51495   -465.71767    617.67792    151.96024    779.86173   -465.71767            0   -10.364365            0            0            0            0            0            0 
10314000    869.42382    49218.287    396.70906   -484.20506    604.26484    120.05977    744.13065   -484.20506            0   -10.640142            0            0            0            0            0            0 
10315000    959.89904    47668.614    397.04223   -495.88198    604.77232    108.89033    776.21008   -495.88198            0   -10.986045            0            0            0            0            0            0 
10316000    753.97232    50483.259    392.95166   -474.48389    598.54159     124.0577    679.16723   -474.48389            0   -10.373529            0            0            0            0            0            0 
10317000    896.60751    49306.648     404.4723   -476.09165    616.08976    139.99811    784.73681   -476.09165            0   -10.621074            0            0            0            0            0            0 
10318000    1013.2932    48397.501    441.17496   -480.93062    671.99503    191.06441    906.27504   -480.93062            0   -10.820591            0            0            0            0            0            0 
10319000      935.124    49266.377    393.34812   -472.14153    599.14547    127.00395    798.89014   -472.14153            0   -10.629756            0            0            0            0            0            0 
10320000    761.38775    48969.619    398.69095   -496.87512    607.28364    110.40853    654.17008   -496.87512            0   -10.694172            0            0            0            0            0            0 
10321000    844.05577      49085.8    411.86209    -477.8979    627.34584    149.44794     753.6788    -477.8979            0    -10.66886            0            0            0            0            0            0 
10322000    1001.8038    51432.835    379.44058   -437.50746    577.96159    140.45413    891.90229   -437.50746            0   -10.182008            0            0            0            0            0            0 
10323000    818.70846     49739.01    400.20488   -487.42941    609.58965    122.16024    716.04517   -487.42941            0   -10.528749            0            0            0            0            0            0 
10324000    911.24058    50038.945     410.3394   -474.05546    625.02648    150.97103    815.96404   -474.05546            0   -10.465639            0            0            0            0            0            0 
10325000    741.29217    51731.084    412.56416   -465.66207    628.41523    162.75316    722.01718   -465.66207            0   -10.123305            0            0            0            0            0            0 
10326000     802.5586    49389.336    402.07953   -484.12849     612.4451     128.3166    706.39378   -484.12849            0   -10.603292            0            0            0            0            0            0 
10327000    735.68611    50721.254    407.48448   -484.02207    620.67788    136.65581    680.85568   -484.02207            0   -10.324854            0            0            0            0            0            0 
10328000    676.81792    52069.224    400.85895   -467.02444    610.58592    143.56148    657.52092   -467.02444            0   -10.057564            0            0            0            0            0            0 
10329000    945.18719    48820.261    416.19089   -485.83073    633.93944    148.10871    821.07578   -485.83073            0    -10.72689            0            0            0            0            0            0 
10330000    802.42476    50697.912    394.76367   -472.80329    601.30163    128.49834    721.79279   -472.80329            0   -10.329608            0            0            0            0            0            0 
10331000    949.96666    48903.661    400.42784   -479.72476    609.92925    130.20449    807.72996   -479.72476            0   -10.708596            0            0            0            0            0            0 
10332000    802.07141    50680.389    391.25582   -468.58134     595.9585    127.37716    720.20538   -468.58134            0   -10.333179            0            0            0            0            0            0 
10333000    817.50186      49086.9    391.45747    -483.5695    596.26564    112.69614    697.93108    -483.5695            0   -10.668621            0            0            0            0            0            0 
10334000    882.40347    51032.872    406.95626   -448.93541    619.87331     170.9379    827.67734   -448.93541            0   -10.261808            0            0            0            0            0            0 
10335000    900.58626    48018.407    402.07485   -491.37862    612.43797    121.05935     751.7392   -491.37862            0   -10.906017            0            0            0            0            0            0 
10336000    911.16835    48305.136    392.46293   -483.04858    597.79716    114.74858    756.64924   -483.04858            0   -10.841281            0            0            0            0            0            0 
10337000    844.34623    50622.689    386.77877   -456.26569    589.13907    132.87339    756.23732   -456.26569            0   -10.344957            0            0            0            0            0            0 
10338000    1027.5411    49516.309    408.13157    -461.2393    621.66353    160.42422    902.45746    -461.2393            0   -10.576102            0            0            0            0            0            0 
10339000    879.93958    51718.486    389.56597   -447.96273    593.38453     145.4218    809.12596   -447.96273            0   -10.125771            0            0            0            0            0            0 
10340000    819.79871    48815.638    398.59953   -496.51883    607.14438    110.62555    694.26158   -496.51883            0   -10.727905            0            0            0            0            0            0 
10341000    750.55755    50566.756    427.24541   -480.90129    650.77762    169.87634    723.38571   -480.90129            0     -10.3564            0            0            0            0            0            0 
10342000    841.70037    49599.356    422.13017   -482.63802    642.98611     160.3481    769.19688   -482.63802            0   -10.558394            0            0            0            0            0            0 
10343000    905.63807    48868.198    403.47668   -479.02087    614.57323    135.55235    780.99385   -479.02087            0   -10.716367            0            0            0            0            0            0 
10344000    992.67592    48980.115    403.46058    -470.6424    614.54871    143.90631    852.99928    -470.6424            0   -10.691881            0            0            0            0            0            0 
10345000    782.97072    50599.611    409.30745   -475.09204    623.45463    148.36259    726.15068   -475.09204            0   -10.349675            0            0            0            0            0            0 
10346000    960.26285    49547.836    407.60334   -462.65858    620.85893    158.20035    852.09049   -462.65858            0   -10.569373            0            0            0            0            0            0 
10347000    978.84402    49117.914     410.7787   -467.44818    625.69563    158.24745    859.42709   -467.44818            0   -10.661885            0            0            0            0            0            0 
10348000    872.70999    49307.178    393.47785   -482.25206    599.34307    117.09101    744.65207   -482.25206            0    -10.62096            0            0            0            0            0            0 
10349000    880.02386    51345.099     410.7595   -450.33772    625.66638    175.32865    834.30425   -450.33772            0   -10.199407            0            0            0            0            0            0 
10350000    916.56623     51194.29    393.14802   -445.86212    598.84068    152.97856    837.30177   -445.86212            0   -10.229452            0            0            0            0            0            0 
10351000    800.90863    49395.039    394.13846   -483.70595    600.34931    116.64336     693.5987   -483.70595            0   -10.602068            0            0            0            0            0            0 
10352000     807.3746    47907.692    396.64726   -498.28063    604.17069    105.89006    669.99022   -498.28063            0   -10.931221            0            0            0            0            0            0 
10353000    783.41017    49604.873    392.06818    -485.3562    597.19587    111.83966    678.58694    -485.3562            0    -10.55722            0            0            0            0            0            0 
[...]
14939000    804.49316    48931.016    383.95959   -494.49935    584.84492    90.345573    664.43888   -494.49935            0   -10.702609            0            0            0            0            0            0 
14940000     799.3064    49801.585    404.85502   -486.01447    616.67272    130.65825     711.1985   -486.01447            0    -10.51552            0            0            0            0            0            0 
14941000    909.97537     49289.63    412.12492   -478.11933    627.74618    149.62685    803.75235   -478.11933            0   -10.624741            0            0            0            0            0            0 
14942000    908.88642    51144.975    407.99175   -447.89319    621.45055    173.55737    851.49302   -447.89319            0   -10.239316            0            0            0            0            0            0 
14943000    898.12213    48828.181     391.6399   -478.90044    596.54353    117.64309    757.20388   -478.90044            0    -10.72515            0            0            0            0            0            0 
14944000    924.52911    50634.783    391.27009   -453.41321    595.98023    142.56702    825.29143   -453.41321            0   -10.342486            0            0            0            0            0            0 
14945000    971.75476    49831.251     414.0106   -465.50716    630.61843    165.11126    871.32207   -465.50716            0   -10.509259            0            0            0            0            0            0 
14946000    925.05151    48913.831    401.18064   -474.97236    611.07592    136.10356     795.9965   -474.97236            0   -10.706369            0            0            0            0            0            0 
14947000    814.22092     50680.43    400.56437   -468.83546    610.13721    141.30176    743.11042   -468.83546            0   -10.333171            0            0            0            0            0            0 
14948000     926.4511    47688.799     405.9741   -501.99093    618.37728    116.38635    760.72589   -501.99093            0   -10.981395            0            0            0            0            0            0 
14949000    899.53266    49709.453    393.51646   -464.11085    599.40189    135.29104    787.41748   -464.11085            0   -10.535009            0            0            0            0            0            0 
14950000    1077.4941    48870.413    397.44859   -460.57969    605.39128    144.81159    912.76842   -460.57969            0   -10.715881            0            0            0            0            0            0 
14951000    932.26911    51892.082    428.53956   -444.41951    652.74885    208.32934    913.86388   -444.41951            0   -10.091897            0            0            0            0            0            0 
14952000     866.1193    49036.673    381.88332   -478.43713    581.68235    103.24522    722.65007   -478.43713            0   -10.679549            0            0            0            0            0            0 
14953000    899.70376    49875.047    389.32444   -460.31833    593.01662    132.69829    787.12158   -460.31833            0   -10.500031            0            0            0            0            0            0 
14954000    935.87877     49176.57     398.0893   -473.78345     606.3672    132.58376    803.78649   -473.78345            0   -10.649168            0            0            0            0            0            0 
14955000    780.71473    51240.993    392.46595   -458.53421    597.80176    139.26755    722.69357   -458.53421            0   -10.220129            0            0            0            0            0            0 
14956000     850.2576    49279.553    384.53032   -475.05986    585.71425    110.65439     721.7275   -475.05986            0   -10.626913            0            0            0            0            0            0 
14957000    966.87332    50489.577    426.52185   -456.67579     649.6755    192.99971    904.94595   -456.67579            0   -10.372231            0            0            0            0            0            0 
14958000    931.20961     48717.47    394.06644   -479.69269    600.23962    120.54693    782.16608   -479.69269            0   -10.749523            0            0            0            0            0            0 
14959000    856.38692    48091.805    400.08515   -496.65031    609.40727    112.75697    713.40076   -496.65031            0   -10.889372            0            0            0            0            0            0 
14960000    855.86136    52108.129    403.79099   -451.65342    615.05199    163.39857    813.80494   -451.65342            0   -10.050055            0            0            0            0            0            0 
14961000    947.08877    49736.946    398.47372    -464.6445    606.95276    142.30825    829.29077    -464.6445            0   -10.529186            0            0            0            0            0            0 
14962000    837.72286    51920.828     427.1213   -453.78152    650.58857    196.80705    831.14086   -453.78152            0    -10.08631            0            0            0            0            0            0 
14963000    778.30569    50213.429     404.6194   -471.50863    616.31381    144.80518    714.76728   -471.50863            0   -10.429273            0            0            0            0            0            0 
14964000    901.96625    48833.536    397.18546   -472.51588    604.99048     132.4746    774.84326   -472.51588            0   -10.723974            0            0            0            0            0            0 
14965000    671.38319    50556.234    388.93764   -476.27843    592.42746    116.14903    611.16711   -476.27843            0   -10.358555            0            0            0            0            0            0 
14966000    819.89217    51582.469    378.91838   -455.85814    577.16618    121.30804    738.09439   -455.85814            0   -10.152471            0            0            0            0            0            0 
14967000     828.4349    50556.096    399.66162    -471.7454    608.76216    137.01677    747.82911    -471.7454            0   -10.358584            0            0            0            0            0            0 
14968000    869.13979    50053.321    390.37714   -467.21095    594.62009    127.40914    761.86064   -467.21095            0   -10.462633            0            0            0            0            0            0 
14969000    918.57961    48351.388    393.44428   -482.35338    599.29194    116.93856    764.67992   -482.35338            0    -10.83091            0            0            0            0            0            0 
14970000    869.60406    49721.552    393.63594    -471.9773    599.58388    127.60658    758.18939    -471.9773            0   -10.532446            0            0            0            0            0            0 
14971000    911.47115    49821.339    413.62888   -469.04547      630.037    160.99153    823.26021   -469.04547            0    -10.51135            0            0            0            0            0            0 
14972000     567.1758     50902.25    391.62384   -488.62718    596.51906    107.89188    528.93887   -488.62718            0   -10.288141            0            0            0            0            0            0 
14973000    834.89788    48103.057    398.54378   -504.50439    607.05946    102.55507    688.26411   -504.50439            0   -10.886825            0            0            0            0            0            0 
14974000    807.41404    51927.247    390.60817   -451.17052      594.972    143.80147    755.26068   -451.17052            0   -10.085063            0            0            0            0            0            0 
14975000    945.59623     48616.28    405.93396   -479.11513    618.31615    139.20102    809.64631   -479.11513            0   -10.771897            0            0            0            0            0            0 
14976000    826.09803    51148.811    396.51837   -461.63953    603.97437    142.33485     758.5651   -461.63953            0   -10.238548            0            0            0            0            0            0 
14977000    837.84983    48692.707     406.7087   -493.93856    619.49622    125.55766    720.54263   -493.93856            0   -10.754989            0            0            0            0            0            0 
14978000    773.15521    51369.962    392.17581   -459.42614    597.35982    137.93368    717.16472   -459.42614            0    -10.19447            0            0            0            0            0            0 
14979000    900.71981    49960.009    411.88953   -468.82765    627.38763    158.55998    814.83838   -468.82765            0   -10.482175            0            0            0            0            0            0 
14980000    877.28903    48696.376    396.50866   -481.96889    603.95959     121.9907    745.02971   -481.96889            0   -10.754179            0            0            0            0            0            0 
14981000    834.50878     49747.76    387.17415   -473.77342    589.74131    115.96789    721.42075   -473.77342            0   -10.526897            0            0            0            0            0            0 
14982000    1006.5549    48917.993    391.71246   -469.49829    596.65405    127.15576    845.25088   -469.49829            0   -10.705459            0            0            0            0            0            0 
14983000    1006.6922    48994.827    407.16738   -466.46092    620.19488    153.73396    873.05508   -466.46092            0    -10.68867            0            0            0            0            0            0 
14984000    994.46453    49161.976    415.93594   -471.00413     633.5511    162.54697    875.55516   -471.00413            0   -10.652329            0            0            0            0            0            0 
14985000    1087.1074    48579.203    411.62543   -467.23604    626.98535    159.74932    929.94084   -467.23604            0   -10.780118            0            0            0            0            0            0 
14986000    1168.7076      48225.4    430.32503   -468.22244    655.46847    187.24603    1009.2191   -468.22244            0   -10.859206            0            0            0            0            0            0 
14987000    929.50317    50910.533    403.17236   -454.77027     614.1097    159.33942    849.47499   -454.77027            0   -10.286467            0            0            0            0            0            0 
14988000    972.40491    48070.541    428.54966    -486.0681    652.76425    166.69615    848.40987    -486.0681            0   -10.894189            0            0            0            0            0            0 
14989000    853.69256    49655.522    398.90948   -478.11888     607.6165    129.49762    747.72031   -478.11888            0   -10.546451            0            0            0            0            0            0 
14990000     912.9656    48822.819    404.96421   -480.94296    616.83903    135.89606    785.95563   -480.94296            0   -10.726327            0            0            0            0            0            0 
14991000    827.52489    50722.225    408.98977   -467.34464    622.97074     155.6261    767.77243   -467.34464            0   -10.324656            0            0            0            0            0            0 
14992000    891.81404    49040.423    387.13197   -479.40428    589.67707    110.27279      748.102   -479.40428            0   -10.678732            0            0            0            0            0            0 
14993000    901.24429    51101.248    404.57672   -447.85432    616.24881    168.39449    840.05517   -447.85432            0   -10.248077            0            0            0            0            0            0 
14994000     876.4148    50656.692    422.90602   -456.33479    644.16789     187.8331    835.30722   -456.33479            0   -10.338013            0            0            0            0            0            0 
14995000    896.21144    49008.149     394.3357   -479.17784    600.64975    121.47191    762.02433   -479.17784            0   -10.685765            0            0            0            0            0            0 
14996000    793.15781    51457.833    404.62502   -456.97985    616.32237    159.34252    754.57551   -456.97985            0   -10.177062            0            0            0            0            0            0 
14997000    790.38111    49938.994    399.96581   -478.60639     609.2255    130.61911    706.26078   -478.60639            0   -10.486586            0            0            0            0            0            0 
14998000    802.27939    49798.376    398.48578   -484.58427    606.97112    122.38686    705.04887   -484.58427            0   -10.516197            0            0            0            0            0            0 
14999000    730.48224    52716.888    399.72785   -452.76112    608.86304    156.10192    717.71254   -452.76112            0   -9.9339997            0            0            0            0            0            0 
15000000    802.32883    49548.536    416.24495   -483.93397    634.02179    150.08782    729.86233   -483.93397            0   -10.569223            0            0            0            0            0            0 
Loop time of 1605.67 on 8 procs for 5000000 steps with 512 atoms

Pair  time (%) = 933.317 (58.1265)
Bond  time (%) = 0.462872 (0.0288274)
Neigh time (%) = 36.8768 (2.29667)
Comm  time (%) = 473.78 (29.5068)
Outpt time (%) = 0.245185 (0.01527)
Other time (%) = 160.984 (10.026)

Nlocal:    64 ave 69 max 59 min
Histogram: 1 1 0 2 0 0 1 0 1 2
Nghost:    1428.5 ave 1441 max 1412 min
Histogram: 2 1 0 0 0 0 1 0 2 2
Neighs:    6674 ave 7334 max 6007 min
Histogram: 1 0 2 1 0 1 0 1 1 1

Total # of neighbors = 53392
Ave neighs/atom = 104.281
Ave special neighs/atom = 0
Neighbor list builds = 92173
Dangerous builds = 0

Averages
Group Pressure(MPa) Volume(m3) Temperature(K) PE(J) KE(J) ET(J) ET^2(J) H(J) H^2(J^2) V^2(m6) V*H(m3*J) Hconf(J) Uext*Hconf(J^2) V*Hconf(m3*J) Uext(J)
Block1 89.968174725174492323 4.9739679103618965227e-26 399.98093636515659455 -3.2762500643883637802e-18 4.2328729174731208359e-18 9.5662285308475358904e-19 9.483326503521179814e-37 5.4262587196105409806e-18 2.9729373022961494054e-35 2.4753725552510450887e-51 2.698394829680483126e-43 1.1933858021374328558e-18 -3.8837008817390592427e-36 5.9296204128461801328e-44 -3.2762500643883637802e-18
Block2 90.031239065689035783 4.9728411275722273206e-26 400.0357374645017785 -3.2795677532125461067e-18 4.2334528603358264394e-18 9.5388510712328899941e-19 9.4514197651095933954e-37 5.4249590488309083535e-18 2.9728216766482525162e-35 2.4743065877585137941e-51 2.6967383089294872916e-43 1.1915061884950744029e-18 -3.8832116049143778759e-36 5.915860983941818191e-44 -3.2795677532125461067e-18
Block3 89.765208027595292606 4.9722963304684838048e-26 400.8916236305582288 -3.2808135840927191169e-18 4.2425104354434359278e-18 9.6169685135071488504e-19 9.5947561788185002392e-37 5.4206587984641193082e-18 2.9660644949726555476e-35 2.4736233533966095173e-51 2.6951107944474867587e-43 1.1781483630206828026e-18 -3.8365230573464222139e-36 5.8554098773024338096e-44 -3.2808135840927191169e-18
Block4 89.981371818622605474 4.9740175818141758208e-26 399.99372821881212303 -3.2744537229938904392e-18 4.2330082896520856464e-18 9.5855456665819231831e-19 9.5365235499286535677e-37 5.4291674590619701511e-18 2.979167790148366207e-35 2.4753281367940423114e-51 2.6998866722041475339e-43 1.1961591694098794973e-18 -3.8862607711000043456e-36 5.9436602472425687339e-44 -3.2744537229938904392e-18
Block5 89.748165705319735252 4.9739094260070732438e-26 400.44592384954751196 -3.2784733933555853423e-18 4.2377937343188552389e-18 9.59320340963272978e-19 9.5151055576469039718e-37 5.4176697077187454905e-18 2.9628660727754206034e-35 2.4752616223998211627e-51 2.6938318706541956396e-43 1.1798759733998817776e-18 -3.8447088874010212354e-36 5.8596513750483821863e-44 -3.2784733933555853423e-18
Ave_blocks 89.898831868480243656 4.9734064752447712278e-26 400.26958990571517916 -3.2779117036086210341e-18 4.2359276474446648177e-18 9.5801594383604436136e-19 9.5162263110049658635e-37 5.4237427467372568568e-18 2.9707714673681688559e-35 2.4747784511200064342e-51 2.6967924951831603089e-43 1.1878150992925901132e-18 -3.8668810405001768491e-36 5.9008405792762766107e-44 -3.2779117036086210341e-18
Stdev_blocks 0.11807503088381243739 7.0620953185017096731e-30 0.35556352895904724809 2.288998944370410206e-21 3.7628174128704458153e-21 2.6285037694627046802e-21 4.8708233099108114631e-39 4.0897323618977436247e-21 5.7278842176817825349e-38 6.9935317642964181229e-55 2.1788877159906836894e-46 7.3587483432898715172e-21 2.1625817282708710371e-38 3.6463446266459213909e-46 2.288998944370410206e-21






Properties
Group rho(kg/m3) Cp(J/K) Cp_conf(J/K) Cp_id(J/K) Cp2(J/K) kT(1/Pa) aP(1/K) aP2(1/K) Cv(J/K) uJT(K/Pa) sos(m/s) Cv2(J/K) uJT2(K/Pa) sos2(m/s) CvNVT(J/K)
Block1 274.21234728448200713 1.2906817203863566166e-19 2.2180737356160774493e-21 3.4523459521863733117e-20 3.6741533257479810566e-20 4.8670550550059688719e-09 -0.00055416846270778220233 -0.00056816945358132613184 1.2781283707056573949e-19 -4.7079630301180778804e-07 869.85268726691231223 3.5421965257711895558e-20 -1.661426768604462402e-06 881.58801802550124194 1.5033028588339797375e-20
Block2 274.27448032788890941 1.3489257589272291248e-19 1.8713296751870649809e-22 3.4526069830138619493e-20 3.4713202797657327496e-20 5.0670939201905582312e-09 -0.00091710556468818866041 -0.00084735230055860936028 1.3159053019912331904e-19 -5.0390113583016327386e-07 858.83459109187344893 3.1894349675531185817e-20 -1.9181436823826261283e-06 884.94909523953936059 1.5952138723027148634e-20
Block3 274.30453162261920852 1.248832705086054426e-19 4.8040050847902282975e-21 3.4566870343738791621e-20 3.937087542852901691e-20 4.542948935904825807e-09 -0.00018253468798233043156 -0.00024407698414415421708 1.2473707401873632271e-19 -4.2729119639508354367e-07 896.33207291287783391 3.9109478917365532327e-20 -1.3865141689446853882e-06 898.79594047384603073 1.5599994378446596586e-20
Block4 274.20960894966543719 1.4297105593808936053e-19 4.2745429095682004658e-21 3.4524068806073978601e-20 3.8798611715642177562e-20 4.5252608006012366329e-09 -0.00053767472114273832766 -0.00055121909299467308774 1.4170002500150806799e-19 -4.2272627668512462917e-07 901.72883478320545692 3.7462738050219333713e-20 -1.564671904886315125e-06 913.57707648635630449 1.5765499998435429286e-20
Block5 274.21557153543670893 1.2534774624836323007e-19 -8.811972471107443788e-23 3.4545615988518205766e-20 3.4457496263807128319e-20 4.6696270060195719975e-09 -0.00078820076511588706494 -0.00081227716149906241654 1.2269782320256479627e-19 -5.2205432688564501236e-07 893.20816312296278738 3.1643211477523295047e-20 -1.9130200888692910293e-06 922.17730425081595058 1.4099149316645334352e-20
Ave_blocks 274.24330794401845424 1.3143256412528329739e-19 2.2791269945564275041e-21 3.4537216898066669331e-20 3.6816343892623088559e-20 4.7343971435444331353e-09 -0.00059593684032738529401 -0.00060461899855556507522 1.2970765789849965391e-19 -4.6935384776156487059e-07 883.99126983556629966 3.5106348675670248492e-20 -1.688755322737476184e-06 900.21748689521177766 1.5289962200978860645e-20
Stdev_blocks 0.038944959514487766106 6.7914222392243949728e-21 2.0169639354186006231e-21 1.6948548062135171558e-23 2.022274873628693287e-21 2.0633509809391140065e-10 0.00025145782061690105267 0.00021735318352255551442 6.705175752712849778e-21 3.9790283523538559545e-08 16.641068206097635596 2.9660577632071258638e-21 2.0513749748472344044e-07 15.766508178299533327 6.700424017964369862e-22






