LAMMPS (28 Oct 2012)
Scanning data file ...
Reading data file ...
  orthogonal box = (0 0 0) to (100 100 100)
  2 by 2 by 2 MPI processor grid
  512 atoms
Finding 1-2 1-3 1-4 neighbors ...
  0 = max # of 1-2 neighbors
  0 = max # of 1-3 neighbors
  0 = max # of 1-4 neighbors
  1 = max # of special neighbors
WARNING: Resetting reneighboring criteria during minimization (min.cpp:173)
Setting up minimization ...
Memory usage per processor = 4.05499 Mbytes
Step Temp E_pair E_mol TotEng Press 
       0       300.15    1409.7233            0      1866.91    433.41551 
     701       300.15   -217.27527            0    239.91139    20.670609 
Loop time of 0.0551749 on 8 procs for 701 steps with 512 atoms

Minimization stats:
  Stopping criterion = energy tolerance
  Energy initial, next-to-last, final = 
         1409.72334813     -217.256630745     -217.275265106
  Force two-norm initial, final = 5034.49 0.337455
  Force max component initial, final = 2457.89 0.147661
  Final line search alpha, max atom move = 0.254892 0.0376377
  Iterations, force evaluations = 701 710

Pair  time (%) = 0.00895703 (16.2339)
Bond  time (%) = 5.97239e-05 (0.108245)
Neigh time (%) = 0.00313962 (5.69029)
Comm  time (%) = 0.0221414 (40.1295)
Outpt time (%) = 0 (0)
Other time (%) = 0.0208772 (37.8381)

Nlocal:    64 ave 74 max 52 min
Histogram: 1 0 0 1 1 2 0 2 0 1
Nghost:    235.125 ave 266 max 224 min
Histogram: 4 0 2 0 0 1 0 0 0 1
Neighs:    316.25 ave 371 max 226 min
Histogram: 1 0 0 1 1 1 0 1 0 3

Total # of neighbors = 2530
Ave neighs/atom = 4.94141
Ave special neighs/atom = 0
Neighbor list builds = 60
Dangerous builds = 0
Setting up run ...
Memory usage per processor = 3.36354 Mbytes
Step Temp E_pair E_mol TotEng Press Volume 
     701       300.15   -217.27527            0    239.91139    20.670609      1000000 
 5000701    290.36916   -603.94041            0   -161.65186    1005.8168    40565.197 
Loop time of 1866.57 on 8 procs for 5000000 steps with 512 atoms

Pair  time (%) = 1115.18 (59.7451)
Bond  time (%) = 0.474089 (0.025399)
Neigh time (%) = 34.8399 (1.86652)
Comm  time (%) = 549.175 (29.4216)
Outpt time (%) = 4.38094e-05 (2.34706e-06)
Other time (%) = 166.896 (8.94133)

Nlocal:    64 ave 74 max 58 min
Histogram: 1 2 0 2 1 0 1 0 0 1
Nghost:    1597.25 ave 1646 max 1563 min
Histogram: 3 0 1 0 1 0 1 1 0 1
Neighs:    8133.12 ave 9727 max 7247 min
Histogram: 1 2 1 0 2 1 0 0 0 1

Total # of neighbors = 65065
Ave neighs/atom = 127.08
Ave special neighs/atom = 0
Neighbor list builds = 79549
Dangerous builds = 17
Setting up run ...
Memory usage per processor = 3.9665 Mbytes
Step Press Volume Temp PotEng KinEng TotEng Enthalpy E_vdwl E_coul E_tail E_long E_bond E_angle E_dihed E_impro E_mol 
10000000    1005.8168    40565.197    290.36916   -603.94041    442.28854   -161.65186    433.39118   -603.94041            0   -12.909824            0            0            0            0            0            0 
10001000    806.14856     40809.41     305.4259   -617.73556    465.22288   -152.51268    327.27743   -617.73556            0   -12.832569            0            0            0            0            0            0 
10002000    726.24194    41488.448     289.1881   -613.65782    440.48956   -173.16826    266.25638   -613.65782            0   -12.622539            0            0            0            0            0            0 
10003000    1047.0188    40140.538    287.08285   -603.41873    437.28286   -166.13587    446.79789   -603.41873            0   -13.046401            0            0            0            0            0            0 
10004000    1006.4545    41017.778    295.52074   -590.77657     450.1354   -140.64116    461.42212   -590.77657            0    -12.76738            0            0            0            0            0            0 
10005000    773.94118    41538.959     305.9008   -606.86811    465.94624   -140.92187     327.9341   -606.86811            0    -12.60719            0            0            0            0            0            0 
10006000    834.89033    41905.015    298.99025   -593.50055    455.42013   -138.08043    372.15584   -593.50055            0   -12.497061            0            0            0            0            0            0 
10007000    857.30872        42083     307.9734   -589.03061    469.10321    -119.9274    406.23501   -589.03061            0   -12.444207            0            0            0            0            0            0 
10008000    955.60573    40899.916      313.213   -601.36428    477.08414   -124.28014    445.72274   -601.36428            0   -12.804172            0            0            0            0            0            0 
10009000     908.0993    40692.153    305.75634   -609.03993    465.72621   -143.31372    395.60082   -609.03993            0   -12.869546            0            0            0            0            0            0 
10010000    733.70601    41542.533    278.66701   -604.27233     424.4639   -179.80843     264.7112   -604.27233            0   -12.606105            0            0            0            0            0            0 
10011000     851.4069    41573.923    299.27081   -601.00982    455.84749   -145.16233    371.05676   -601.00982            0   -12.596587            0            0            0            0            0            0 
10012000     803.1095    41306.691     311.9263   -613.85417    475.12424   -138.72993    345.07586   -613.85417            0    -12.67808            0            0            0            0            0            0 
10013000    1054.5277    40753.105    308.20512   -601.77054    469.45617   -132.31437    494.43596   -601.77054            0   -12.850298            0            0            0            0            0            0 
10014000    825.99061    41749.145    293.56928   -596.99016    447.16295   -149.82721    353.09242   -596.99016            0   -12.543719            0            0            0            0            0            0 
10015000    844.46735    42875.116     328.5861   -577.24209    500.50036   -76.741728    451.29492   -577.24209            0     -12.2143            0            0            0            0            0            0 
10016000    1063.4595    39857.576    287.90924   -616.37319     438.5416   -177.83159    440.33812   -616.37319            0   -13.139021            0            0            0            0            0            0 
10017000    927.38283     40181.01    295.82464   -615.23053     450.5983   -164.63224      378.813   -615.23053            0    -13.03326            0            0            0            0            0            0 
10018000    775.08342    41777.516    304.84226   -603.28601    464.33388   -138.95213    333.29242   -603.28601            0   -12.535201            0            0            0            0            0            0 
10019000    740.32907    42256.873    305.88138   -597.11397    465.91667    -131.1973    325.04763   -597.11397            0   -12.393003            0            0            0            0            0            0 
10020000     851.2207    41410.217    286.41521    -595.7856    436.26591    -159.5197    354.55422    -595.7856            0   -12.646385            0            0            0            0            0            0 
10021000    787.71925    40288.056    297.53944   -629.92254    453.21027   -176.71227    286.12003   -629.92254            0    -12.99863            0            0            0            0            0            0 
10022000    1000.3942    40718.427    283.02561   -595.77241    431.10289   -164.66952    429.40106   -595.77241            0   -12.861242            0            0            0            0            0            0 
10023000    735.46127    42256.873    290.42857   -593.16199    442.37904   -150.78296    302.46208   -593.16199            0   -12.393003            0            0            0            0            0            0 
10024000    893.67484    41630.013    281.82267    -588.9482    429.27059   -159.67762    382.90011    -588.9482            0   -12.579615            0            0            0            0            0            0 
10025000    906.10655    41812.818    303.52297   -587.78135    462.32434     -125.457     427.0841   -587.78135            0   -12.524617            0            0            0            0            0            0 
10026000    1051.1031    39384.594    275.55654   -621.40689    419.72605   -201.68084    402.05585   -621.40689            0   -13.296812            0            0            0            0            0            0 
10027000    859.02066    42619.813    293.04199   -575.88074    446.35979   -129.52095     404.4173   -575.88074            0   -12.287467            0            0            0            0            0            0 
10028000    943.68151    40155.761     306.1902   -619.17568    466.38706   -152.78863    399.86012   -619.17568            0   -13.041455            0            0            0            0            0            0 
10029000     762.8087    41401.776    314.02534   -609.22372    478.32149   -130.90223    329.68352   -609.22372            0   -12.648963            0            0            0            0            0            0 
10030000    981.23258    42169.688    310.76952   -575.80579    473.36225   -102.44354    501.01612   -575.80579            0   -12.418625            0            0            0            0            0            0 
10031000    821.97398    40781.594    296.19807   -615.45559    451.16711   -164.28848    324.58689   -615.45559            0   -12.841321            0            0            0            0            0            0 
10032000    835.87641    42043.927    301.48023   -584.64358    459.21286   -125.43072    387.10157   -584.64358            0   -12.455772            0            0            0            0            0            0 
10033000    678.84119    41780.271    291.33891   -606.33876    443.76566    -162.5731    251.06004   -606.33876            0   -12.534374            0            0            0            0            0            0 
10034000    795.58589    42492.308    299.36178   -591.02714    455.98604   -135.04109    357.98884   -591.02714            0   -12.324337            0            0            0            0            0            0 
10035000     978.3434    39692.161    289.62736   -621.13578    441.15864   -179.97714    386.35597   -621.13578            0   -13.193778            0            0            0            0            0            0 
10036000    1087.6443    40725.006    306.83092   -590.55697      467.363   -123.19396    522.79327   -590.55697            0   -12.859164            0            0            0            0            0            0 
10037000    998.24214    41319.859    309.30597    -590.5491    471.13297   -119.41613    482.13233    -590.5491            0    -12.67404            0            0            0            0            0            0 
10038000    852.59507    41841.133    311.09222    -594.4892    473.85379   -120.63541    399.62664    -594.4892            0   -12.516141            0            0            0            0            0            0 
10039000    1000.4399    40207.257    300.82624    -609.9366    458.21671   -151.71989    434.91964    -609.9366            0   -13.024752            0            0            0            0            0            0 
10040000    847.60744    40592.954    298.82623   -616.62841     455.1703   -161.45811    340.33109   -616.62841            0   -12.900996            0            0            0            0            0            0 
10041000    882.39572    41936.384    299.72406   -586.85395    456.53788   -130.31607     409.3564   -586.85395            0   -12.487713            0            0            0            0            0            0 
10042000    961.45785    41122.509    308.22235   -591.55701    469.48241   -122.07459    454.54015   -591.55701            0   -12.734864            0            0            0            0            0            0 
10043000    1004.0824    40499.336    299.49273   -603.94077    456.18551   -147.75526    445.29724   -603.94077            0   -12.930818            0            0            0            0            0            0 
10044000    867.24411    41697.804    291.01036   -596.64869    443.26522   -153.38347    374.00476   -596.64869            0   -12.559164            0            0            0            0            0            0 
10045000    976.26365     40760.83    316.62811   -606.00763    482.28602   -123.72161     456.6231   -606.00763            0   -12.847863            0            0            0            0            0            0 
10046000    827.09412    40345.812    298.20058   -627.19304    454.21731   -172.97573    313.68834   -627.19304            0   -12.980023            0            0            0            0            0            0 
10047000    1049.0792    40989.096    301.75722   -593.60355    459.63476   -133.96879     493.1539   -593.60355            0   -12.776314            0            0            0            0            0            0 
10048000    957.94327    40309.848     305.4018   -611.77043    465.18617   -146.58426    416.56931   -611.77043            0   -12.991603            0            0            0            0            0            0 
10049000    969.03754      40061.3    297.87363   -622.16815    453.71931   -168.44884    397.71421   -622.16815            0   -13.072206            0            0            0            0            0            0 
10050000    787.33415    41501.009    310.67825   -607.03333    473.22322    -133.8101    342.72361   -607.03333            0   -12.618718            0            0            0            0            0            0 
10051000    736.04114    41606.409    302.25931   -610.85959    460.39954   -150.46005       296.16   -610.85959            0   -12.586752            0            0            0            0            0            0 
10052000    982.93184    40863.822    319.61931   -601.94833    486.84219   -115.10614    470.67891   -601.94833            0   -12.815481            0            0            0            0            0            0 
10053000    946.97405    40329.892    297.08041   -609.78341    452.51108   -157.27233    399.70949   -609.78341            0   -12.985146            0            0            0            0            0            0 
10054000    921.43888    41646.338    295.22943   -588.98613    449.69168   -139.29445    420.35908   -588.98613            0   -12.574684            0            0            0            0            0            0 
10055000    946.53408    40593.757    285.37946   -607.36939    434.68826   -172.68112    387.68438   -607.36939            0   -12.900741            0            0            0            0            0            0 
10056000    812.46664    42952.768    284.54002   -574.35939    433.40964   -140.94975    367.99728   -574.35939            0   -12.192219            0            0            0            0            0            0 
10057000    904.36059    40771.141     304.9634   -610.35744     464.5184   -145.83904    391.89853   -610.35744            0   -12.844614            0            0            0            0            0            0 
10058000    833.40401    41834.028    308.58959   -596.25623    470.04179   -126.21443    382.25068   -596.25623            0   -12.518267            0            0            0            0            0            0 
10059000     927.3299    41376.545    288.74854   -589.35132    439.82003   -149.53129    410.05154   -589.35132            0   -12.656676            0            0            0            0            0            0 
10060000    911.06629    41055.139    290.26229   -600.39082    442.12576   -158.26506    387.23323   -600.39082            0   -12.755761            0            0            0            0            0            0 
10061000    813.50701    41587.001    279.68095    -597.4879    426.00833   -171.47957    321.91549    -597.4879            0   -12.592626            0            0            0            0            0            0 
10062000    688.57708    40533.656    308.02924   -633.79286    469.18827   -164.60459     242.4421   -633.79286            0   -12.919869            0            0            0            0            0            0 
10063000    783.18191    40341.339    280.94822   -626.95816    427.93862   -199.01955    261.75539   -626.95816            0   -12.981462            0            0            0            0            0            0 
10064000    890.35427    41496.971    305.95522   -604.29233    466.02913   -138.26319    400.57097   -604.29233            0   -12.619946            0            0            0            0            0            0 
10065000    937.51015    41304.143    294.46499   -588.66186    448.52729   -140.13457    424.60144   -588.66186            0   -12.678862            0            0            0            0            0            0 
10066000    772.75116    42054.819    312.71545   -594.56264    476.32627   -118.23637    355.71231   -594.56264            0   -12.452546            0            0            0            0            0            0 
10067000    946.73294     41955.61    311.63618   -585.32069    474.68234   -110.63836    468.64816   -585.32069            0   -12.481991            0            0            0            0            0            0 
10068000    862.12371    40350.503    291.72355   -623.86663    444.35155   -179.51508    327.81946   -623.86663            0   -12.978513            0            0            0            0            0            0 
10069000    915.93354    40745.977    289.78421   -607.22456    441.39754   -165.82702    378.45575   -607.22456            0   -12.852546            0            0            0            0            0            0 
10070000    970.98814     40894.12    303.96111   -600.40874    462.99173   -137.41701    441.67914   -600.40874            0   -12.805987            0            0            0            0            0            0 
10071000    841.06262    42491.196     300.3495   -589.67928    457.49053   -132.18875    389.00977   -589.67928            0    -12.32466            0            0            0            0            0            0 
10072000    794.22226    41465.377    292.82634   -603.33876    446.03131   -157.30745    322.98257   -603.33876            0   -12.629562            0            0            0            0            0            0 
10073000    827.38267     40620.51    300.74152   -617.57217    458.08767    -159.4845      330.664   -617.57217            0   -12.892245            0            0            0            0            0            0 
10074000    940.40345    40867.085    313.78294    -604.1193    477.95227   -126.16702    434.31768    -604.1193            0   -12.814458            0            0            0            0            0            0 
10075000    789.65149    40790.528    281.76848   -615.59451    429.18804   -186.40647    283.34773   -615.59451            0   -12.838509            0            0            0            0            0            0 
10076000    815.48535    40981.363    304.50816   -619.99403    463.82499   -156.16904    331.22302   -619.99403            0   -12.778725            0            0            0            0            0            0 
10077000    1210.5779    40040.341    315.50339    -601.1824    480.57285   -120.60955    586.30417    -601.1824            0   -13.079048            0            0            0            0            0            0 
10078000    839.68871    41779.469     299.6956   -597.18554    456.49451   -140.69103     370.9403   -597.18554            0   -12.534615            0            0            0            0            0            0 
10079000    894.18654    41185.545    309.46137   -601.62328    471.36968   -130.25361    406.83858   -601.62328            0   -12.715372            0            0            0            0            0            0 
10080000    817.94515    42101.617    282.06015   -583.80348    429.63231   -154.17117    348.05444   -583.80348            0   -12.438704            0            0            0            0            0            0 
10081000    838.63604    41055.184    302.17295   -611.66769      460.268   -151.39969    350.73175   -611.66769            0   -12.755747            0            0            0            0            0            0 
10082000     829.1094     41148.97    311.28956   -608.47269    474.15437   -134.31832     363.2431   -608.47269            0   -12.726674            0            0            0            0            0            0 
10083000    886.33362     41329.97    289.80043   -593.97264    441.42225   -152.55038    381.69184   -593.97264            0   -12.670939            0            0            0            0            0            0 
10084000    799.82213    42272.862    295.13059    -589.8998    449.54112   -140.35868    352.73672    -589.8998            0   -12.388315            0            0            0            0            0            0 
10085000    778.98935     41464.14    295.41014    -604.3515    449.96694   -154.38456    316.67962    -604.3515            0   -12.629939            0            0            0            0            0            0 
10086000    968.14314    40237.493    287.75686   -614.10334     438.3095   -175.79384    392.33439   -614.10334            0   -13.014965            0            0            0            0            0            0 
10087000    1016.3831    42001.693    314.57148   -576.08862    479.15337   -96.935247    525.65188   -576.08862            0   -12.468296            0            0            0            0            0            0 
10088000    858.31426    41417.824    314.21046   -605.08405    478.60347   -126.48058    391.97255   -605.08405            0   -12.644062            0            0            0            0            0            0 
10089000     682.5035     42054.96    289.12398   -603.98434    440.39189   -163.59244    255.00638   -603.98434            0   -12.452504            0            0            0            0            0            0 
10090000    882.42682     41617.24     286.4428   -590.77176    436.30793   -154.46384    381.12049   -590.77176            0   -12.583476            0            0            0            0            0            0 
10091000    706.74791    41316.851    307.00664   -620.20807    467.63066   -152.57741    273.28336   -620.20807            0   -12.674963            0            0            0            0            0            0 
10092000    790.40098    41738.391    295.82951   -602.14007    450.60572   -151.53436     329.5919   -602.14007            0   -12.546951            0            0            0            0            0            0 
10093000    965.10361    40309.652    308.45159   -611.35749     469.8316   -141.52589    425.83433   -611.35749            0   -12.991666            0            0            0            0            0            0 
10094000    851.99065    41896.865    302.30838   -591.53051    460.47429   -131.05622    389.52949   -591.53051            0   -12.499492            0            0            0            0            0            0 
10095000    916.73119    41783.523    298.12607   -582.71079    454.10381   -128.60697    430.02135   -582.71079            0   -12.533399            0            0            0            0            0            0 
10096000    704.46375     41175.22    306.57013   -619.99846    466.96576    -153.0327    269.99661   -619.99846            0   -12.718561            0            0            0            0            0            0 
10097000    837.28033    41706.316    302.84889    -602.3674    461.29759   -141.06981    368.20079    -602.3674            0     -12.5566            0            0            0            0            0            0 
10098000    920.77448    40535.859    309.04304   -612.76479    470.73249    -142.0323    402.30556   -612.76479            0   -12.919167            0            0            0            0            0            0 
10099000    867.11799    40700.692    301.78436   -612.85481    459.67611    -153.1787    361.52332   -612.85481            0   -12.866846            0            0            0            0            0            0 
10100000    813.06852    42185.463    305.84866   -596.40904    465.86682   -130.54222    369.68332   -596.40904            0   -12.413981            0            0            0            0            0            0 
10101000    900.46116      40058.3    300.31822    -622.6633    457.44289   -165.22041     360.8373    -622.6633            0   -13.073185            0            0            0            0            0            0 
10102000    899.77781    41778.142    292.92044   -593.65899    446.17464   -147.48435    400.74249   -593.65899            0   -12.535013            0            0            0            0            0            0 
10103000    942.85235    41772.197    294.42824   -586.37338    448.47132   -137.90206    436.48797   -586.37338            0   -12.536797            0            0            0            0            0            0 
10104000    728.10109    42526.848    278.93081   -588.71716    424.86571   -163.85144    287.72447   -588.71716            0   -12.314328            0            0            0            0            0            0 
10105000    781.37748    40913.083    290.17235   -621.47836    441.98877   -179.48959    286.73909   -621.47836            0   -12.800051            0            0            0            0            0            0 
10106000    741.12838    41852.258    308.27781   -597.71341    469.56689   -128.14652    324.21768   -597.71341            0   -12.512815            0            0            0            0            0            0 
10107000    1023.4259    41637.592    302.11058   -582.01311    460.17301    -121.8401    499.62666   -582.01311            0   -12.577325            0            0            0            0            0            0 
10108000    895.69759    41324.757    321.31983   -604.32895    489.43241   -114.89654    424.92177   -604.32895            0   -12.672538            0            0            0            0            0            0 
10109000    834.75106    42493.296    296.89152   -576.63883    452.22336   -124.41547    392.89741   -576.63883            0   -12.324051            0            0            0            0            0            0 
10110000    809.29791    41328.243    307.54653   -609.72565    468.45301   -141.27264    346.51551   -609.72565            0   -12.671469            0            0            0            0            0            0 
10111000    1114.6405    40743.485     285.7976    -591.1816    435.32518   -155.85642     506.4651    -591.1816            0   -12.853332            0            0            0            0            0            0 
10112000    1100.6339    41185.679    301.96147   -584.53159    459.94588   -124.58571    536.51099   -584.53159            0   -12.715331            0            0            0            0            0            0 
10113000    846.54974    41926.532    304.67919   -592.82302    464.08549   -128.73753    388.88994   -592.82302            0   -12.490648            0            0            0            0            0            0 
10114000    877.52531    40531.209    290.72019    -610.1279    442.82323   -167.30468     351.4059    -610.1279            0   -12.920649            0            0            0            0            0            0 
10115000     801.9964    41741.783    295.09325   -600.76822    449.48425   -151.28398    336.94022   -600.76822            0   -12.545932            0            0            0            0            0            0 
10116000     819.7035    41013.502    299.21637   -612.84266    455.76456    -157.0781    333.21924   -612.84266            0   -12.768711            0            0            0            0            0            0 
10117000     807.6812    40995.099    291.78139   -616.02308    444.43965   -171.58343    311.30611   -616.02308            0   -12.774443            0            0            0            0            0            0 
10118000    801.66928    42220.493    301.98508   -590.37434    459.98185    -130.3925    363.22941   -590.37434            0   -12.403682            0            0            0            0            0            0 
10119000    998.14757    41179.322    307.10717   -594.33707    467.78377    -126.5533    472.89237   -594.33707            0   -12.717294            0            0            0            0            0            0 
10120000    914.63621     41066.81    280.56246   -596.42543    427.35104   -169.07439    378.71707   -596.42543            0   -12.752136            0            0            0            0            0            0 
10121000    868.24838    42238.984    316.36542    -584.7452     481.8859    -102.8593    431.99234    -584.7452            0   -12.398252            0            0            0            0            0            0 
10122000     877.2941    40286.028     296.8398   -621.04911    452.14458   -168.90452    346.53243   -621.04911            0   -12.999285            0            0            0            0            0            0 
10123000    1084.7638    40725.661    295.86475   -590.67262     450.6594   -140.01323    504.27356   -590.67262            0   -12.858958            0            0            0            0            0            0 
10124000    922.82105    42437.048     305.4267   -572.37368     465.2241   -107.14958    463.98513   -572.37368            0   -12.340386            0            0            0            0            0            0 
10125000    983.99305    40919.381    280.73363   -591.35353    427.61176   -163.74178      423.473   -591.35353            0   -12.798081            0            0            0            0            0            0 
10126000    874.65796    41697.705    297.66158    -594.8352    453.39632   -141.43888    390.45659    -594.8352            0   -12.559194            0            0            0            0            0            0 
10127000    771.27486    41246.666    305.16427   -612.41874    464.82437   -147.59437    316.35856   -612.41874            0    -12.69653            0            0            0            0            0            0 
10128000    1040.9958    41364.647    295.16203   -583.46221    449.58901    -133.8732    494.11893   -583.46221            0   -12.660317            0            0            0            0            0            0 
10129000    820.09323    41486.426     281.9948   -598.28534    429.53277   -168.75257    327.43416   -598.28534            0   -12.623154            0            0            0            0            0            0 
10130000    694.65676    42311.046    288.67077   -596.62467    439.70156   -156.92311    271.72402   -596.62467            0   -12.377135            0            0            0            0            0            0 
10131000    884.49655     41459.61    306.93492   -601.33509    467.52141   -133.81368    400.99353   -601.33509            0   -12.631319            0            0            0            0            0            0 
10132000    973.97615    41628.707    286.80937   -582.91019    436.86629    -146.0439     445.2687   -582.91019            0    -12.58001            0            0            0            0            0            0 
10133000     1117.126    40816.557    302.88023    -588.3958    461.34532   -127.05048    537.93843    -588.3958            0   -12.830321            0            0            0            0            0            0 
10134000    926.62274    41064.274    294.06055   -596.84483    447.91125   -148.93358    406.00254   -596.84483            0   -12.752924            0            0            0            0            0            0 
10135000    924.90909    40128.984    287.62196   -620.22096    438.10403   -182.11693    359.17693   -620.22096            0   -13.050157            0            0            0            0            0            0 
10136000    821.85887    42076.492     316.0271   -592.79161    481.37057   -111.42104    392.90647   -592.79161            0   -12.446131            0            0            0            0            0            0 
10137000    816.86763    41808.386    299.70228   -593.99193    456.50469   -137.48724    360.58345   -593.99193            0   -12.525945            0            0            0            0            0            0 
10138000    991.00856    40466.519    286.88146   -606.99163    436.97609   -170.01554    414.84071   -606.99163            0   -12.941305            0            0            0            0            0            0 
10139000    990.41995    40559.742    290.06254   -605.81822     441.8215   -163.99671    421.85871   -605.81822            0    -12.91156            0            0            0            0            0            0 
10140000    792.20912    41718.976    286.69672   -593.70559    436.69471   -157.01087    324.99171   -593.70559            0    -12.55279            0            0            0            0            0            0 
10141000    728.19941    42102.271    288.48326   -596.43508    439.41596   -157.01913    290.10874   -596.43508            0   -12.438511            0            0            0            0            0            0 
10142000    871.84258    40177.409    304.05005   -623.98184    463.12719   -160.85465    349.99828   -623.98184            0   -13.034428            0            0            0            0            0            0 
10143000    1033.3564    41338.661    306.96832   -588.63754    467.57228   -121.06526    501.92666   -588.63754            0   -12.668276            0            0            0            0            0            0 
10144000    838.91452    40615.392    309.29305    -614.0402    471.11329   -142.92691    353.99055    -614.0402            0   -12.893869            0            0            0            0            0            0 
10145000    797.03991    42855.316    315.49423   -578.27699     480.5589   -97.718091    400.43251   -578.27699            0   -12.219944            0            0            0            0            0            0 
10146000    1016.0874    40374.015    302.23213   -609.15924    460.35815    -148.8011    449.48495   -609.15924            0   -12.970955            0            0            0            0            0            0 
10147000    789.39089    41748.005    295.86631    -603.1887    450.66177   -152.52692    328.09516    -603.1887            0   -12.544062            0            0            0            0            0            0 
10148000    766.22707    42475.581    296.80873   -587.35697    452.09726   -135.25971    339.38944   -587.35697            0   -12.329191            0            0            0            0            0            0 
10149000    1069.7287    39569.763    300.30783   -617.64325    457.42706   -160.21619    457.10758   -617.64325            0   -13.234589            0            0            0            0            0            0 
10150000    839.08245    42513.602    300.05228    -584.4964    457.03781   -127.45859    392.78703    -584.4964            0   -12.318165            0            0            0            0            0            0 
10151000    945.21294    41104.714    278.95954   -590.71945    424.90948   -165.80997    400.81691   -590.71945            0   -12.740377            0            0            0            0            0            0 
10152000    942.89893     41486.57    308.51477   -590.19007    469.92783   -120.26224    450.22846   -590.19007            0    -12.62311            0            0            0            0            0            0 
10153000     971.9419    40785.156    307.42595    -602.3016    468.26934   -134.03226    444.08817    -602.3016            0     -12.8402            0            0            0            0            0            0 
10154000    939.61663    41808.488    283.52972   -586.50841    431.87075   -154.63766    418.27847   -586.50841            0   -12.525915            0            0            0            0            0            0 
10155000    874.93117    40040.891     278.3419   -627.40819     423.9687   -203.43949    307.48122   -627.40819            0   -13.078869            0            0            0            0            0            0 
10156000    913.30315    41452.251    286.34724   -589.40765    436.16238   -153.24528    398.88169   -589.40765            0   -12.633561            0            0            0            0            0            0 
10157000    805.35413    41424.529    275.64587   -594.76404    419.86211   -174.90193     311.6401   -594.76404            0   -12.642016            0            0            0            0            0            0 
10158000    802.27822    42208.234    286.15023   -586.92307     435.8623   -151.06077    342.79266   -586.92307            0   -12.407284            0            0            0            0            0            0 
10159000    827.81133    41385.996     299.1545   -600.33249    455.67031   -144.66218    354.98182   -600.33249            0   -12.653786            0            0            0            0            0            0 
10160000    1109.3553    39865.163    297.47397   -608.18766    453.11055   -155.07711    489.89378   -608.18766            0   -13.136521            0            0            0            0            0            0 
10161000    937.64695    41027.704    296.33794   -599.97261    451.38015   -148.59245    412.44577   -599.97261            0   -12.764291            0            0            0            0            0            0 
10162000    742.60643    41600.524    288.62428   -605.39013    439.63076   -165.75937    284.78067   -605.39013            0   -12.588533            0            0            0            0            0            0 
10163000    665.26022     42157.99    286.41067   -600.15204      436.259   -163.89304     245.1296   -600.15204            0   -12.422071            0            0            0            0            0            0 
10164000    844.97055    42355.549    277.46791   -577.68621    422.63744   -155.04877    366.89989   -577.68621            0   -12.364131            0            0            0            0            0            0 
10165000    887.92633    40194.473    306.02198    -620.9708    466.13082   -154.83998    365.65814    -620.9708            0   -13.028894            0            0            0            0            0            0 
10166000    899.51723     40757.59    309.89307   -609.09718    472.02725   -137.06994    397.60999   -609.09718            0   -12.848884            0            0            0            0            0            0 
10167000    965.86184    41280.739    308.83816   -594.57302    470.42041   -124.15261    457.33218   -594.57302            0   -12.686051            0            0            0            0            0            0 
10168000    788.50933     42184.48    305.66682     -590.485    465.58985   -124.89514    360.20949     -590.485            0   -12.414271            0            0            0            0            0            0 
10169000    856.48185    41275.814     303.2823   -601.20563    461.95776   -139.24787    376.32457   -601.20563            0   -12.687564            0            0            0            0            0            0 
10170000    887.77403    41898.262     302.7646   -587.98494     461.1692   -126.81574    415.65252   -587.98494            0   -12.499076            0            0            0            0            0            0 
10171000    927.03369    41464.593    306.54423   -594.77229    466.92631   -127.84598     432.7485   -594.77229            0   -12.629801            0            0            0            0            0            0 
10172000     746.6304    42431.085    310.82718   -588.49178    473.45008    -115.0417    346.98353   -588.49178            0    -12.34212            0            0            0            0            0            0 
10173000    929.91275    40195.401    304.16252   -621.69074    463.29851   -158.39224    386.73071   -621.69074            0   -13.028594            0            0            0            0            0            0 
10174000    873.67062    40781.933    299.33587    -608.7771    455.94658   -152.83051    366.79615    -608.7771            0   -12.841214            0            0            0            0            0            0 
10175000    835.26801    41612.335    302.43664   -601.20178    460.66966   -140.53212    366.36966   -601.20178            0   -12.584959            0            0            0            0            0            0 
10176000    874.66366    42574.396    285.11926   -575.78244    434.29192   -141.49052    401.59155   -575.78244            0   -12.300575            0            0            0            0            0            0 
10177000    866.12897    41687.994    293.96024   -587.09139    447.75846   -139.33293    387.25324   -587.09139            0   -12.562119            0            0            0            0            0            0 
10178000    812.81699    42667.626    308.12057   -580.06829    469.32738   -110.74091    395.04548   -580.06829            0   -12.273698            0            0            0            0            0            0 
10179000    969.94549    40835.957    304.23298   -596.78136    463.40583   -133.37553    444.27604   -596.78136            0   -12.824226            0            0            0            0            0            0 
10180000    901.70553    39798.628    305.89035   -629.49002    465.93032    -163.5597    359.81018   -629.49002            0   -13.158482            0            0            0            0            0            0 
10181000    661.32743    42027.969    277.23731     -602.364    422.28619   -180.07781    225.27279     -602.364            0   -12.460501            0            0            0            0            0            0 
10182000    1017.0495    40938.784    286.29186   -595.06202    436.07803   -158.98399    448.24559   -595.06202            0   -12.792015            0            0            0            0            0            0 
10183000    961.07418    41153.398    290.51192   -589.74088      442.506   -147.23488    429.58272   -589.74088            0   -12.725305            0            0            0            0            0            0 
10184000     875.0582    41383.113    295.80149   -600.39161    450.56304   -149.82856    378.29553   -600.39161            0   -12.654668            0            0            0            0            0            0 
10185000    745.18021    42380.876    307.16393   -586.83245    467.87024   -118.96222    341.61996   -586.83245            0   -12.356742            0            0            0            0            0            0 
10186000    1083.5613    40842.396    289.91827    -591.0831    441.60175   -149.48135    495.93595    -591.0831            0   -12.822204            0            0            0            0            0            0 
10187000     898.4901    42303.145    291.26715   -579.35401    443.65635   -135.69766    418.62399   -579.35401            0   -12.379447            0            0            0            0            0            0 
10188000    1114.4625    40278.907    283.88495    -598.9074    432.41184   -166.49556    488.16931    -598.9074            0   -13.001583            0            0            0            0            0            0 
10189000    898.85145    42500.271     285.5761   -572.91782    434.98778   -137.93004    419.19863   -572.91782            0   -12.322029            0            0            0            0            0            0 
10190000     786.3758    41263.897    284.77028    -607.4628    433.76036   -173.70243    299.53193    -607.4628            0   -12.691228            0            0            0            0            0            0 
10191000    759.47477     41527.31    285.68977   -611.40988    435.16092   -176.24896    283.71419   -611.40988            0   -12.610726            0            0            0            0            0            0 
10192000    887.95436    41647.122    284.82514   -591.23879    433.84392   -157.39487    381.93134   -591.23879            0   -12.574447            0            0            0            0            0            0 
10193000    819.72047    41509.349    303.62841   -602.92799    462.48496   -140.44303     355.7922   -602.92799            0   -12.616183            0            0            0            0            0            0 
10194000    892.07048    41008.317    291.55571   -597.74936    444.09589   -153.65347    379.86198   -597.74936            0   -12.770325            0            0            0            0            0            0 
10195000    1030.7947     39838.27    306.35533   -614.74649    466.63858    -148.1079    450.78412   -614.74649            0   -13.145389            0            0            0            0            0            0 
10196000    847.20489     40464.78    295.72037   -617.25222    450.43947   -166.81275    333.15446   -617.25222            0   -12.941861            0            0            0            0            0            0 
10197000    871.93557    42200.733    280.71138   -580.33537    427.57787    -152.7575    383.87909   -580.33537            0   -12.409489            0            0            0            0            0            0 
10198000    814.37631    41946.607    298.35076   -595.93433    454.44606   -141.48826    356.70501   -595.93433            0    -12.48467            0            0            0            0            0            0 
10199000    956.44891    39645.126    300.32586   -627.77191    457.45453   -170.31738     382.6856   -627.77191            0   -13.209431            0            0            0            0            0            0 
10200000    818.32942    41833.727    297.55831   -601.01729    453.23901   -147.77828    351.48613   -601.01729            0   -12.518358            0            0            0            0            0            0 
10201000    1160.2473    40843.763    298.06731   -586.57549    454.01431   -132.56118     558.5568   -586.57549            0   -12.821775            0            0            0            0            0            0 
10202000    991.96657    40697.024    297.52096   -599.31393    453.18212    -146.1318    442.62451   -599.31393            0   -12.868006            0            0            0            0            0            0 
10203000    986.95112    39975.651    313.64511   -619.12028    477.74233   -141.37795    434.01837   -619.12028            0   -13.100213            0            0            0            0            0            0 
10204000    818.03356    42543.097    286.72382   -577.38752    436.73598   -140.65155    366.89528   -577.38752            0   -12.309624            0            0            0            0            0            0 
10205000    1047.8885    40485.719     300.7149    -600.0608    458.04712   -142.01368    476.70443    -600.0608            0   -12.935167            0            0            0            0            0            0 
10206000    1136.8519    39532.149    298.82725   -616.22798    455.17186   -161.05612    494.37972   -616.22798            0   -13.247181            0            0            0            0            0            0 
10207000    866.39392    41571.376    299.40387   -596.79592    456.05016   -140.74575    384.52798   -596.79592            0   -12.597359            0            0            0            0            0            0 
10208000    786.62175    41203.391     281.0319   -608.09187    428.06608   -180.02579    292.66246   -608.09187            0   -12.709865            0            0            0            0            0            0 
10209000    974.49787    41698.457    292.99862    -578.1925    446.29373   -131.89878    460.72186    -578.1925            0   -12.558967            0            0            0            0            0            0 
10210000    913.45383    40710.869    319.19403   -609.75552    486.19441   -123.56111    418.78042   -609.75552            0    -12.86363            0            0            0            0            0            0 
10211000     1091.787    41547.165    321.25772   -580.12163    489.33781   -90.783821    570.75479   -580.12163            0     -12.6047            0            0            0            0            0            0 
10212000    898.85955    41169.079     292.6163   -600.60549    445.71137   -154.89412    384.78905   -600.60549            0   -12.720458            0            0            0            0            0            0 
10213000    713.97273    42087.623    292.95378   -601.25747    446.22542   -155.03205    283.20785   -601.25747            0    -12.44284            0            0            0            0            0            0 
10214000    715.79116    42449.321    305.70692   -598.84389    465.65093   -133.19296    309.93889   -598.84389            0   -12.336818            0            0            0            0            0            0 
10215000    989.02333    40308.785    310.56324   -612.23346    473.04805   -139.18541     442.2241   -612.23346            0   -12.991946            0            0            0            0            0            0 
10216000    659.63763    42507.492    283.93098   -597.60657    432.48194   -165.12462    243.80333   -597.60657            0   -12.319935            0            0            0            0            0            0 
10217000    900.57162    40106.015    303.94644   -622.52696    462.96938   -159.55758    367.19135   -622.52696            0   -13.057631            0            0            0            0            0            0 
10218000    945.32834    40890.551    303.88788   -598.49842    462.88018   -135.61825    428.12523   -598.49842            0   -12.807104            0            0            0            0            0            0 
10219000    938.55911    41738.468    303.52383   -590.17308    462.32565   -127.84743    443.46546   -590.17308            0   -12.546928            0            0            0            0            0            0 
10220000    1084.8077    39812.933    293.09603   -617.96033    446.44209   -171.51824    458.35453   -617.96033            0   -13.153754            0            0            0            0            0            0 
10221000     1031.807    40760.847    329.01791   -602.46374    501.15809   -101.30565     512.0573   -602.46374            0   -12.847857            0            0            0            0            0            0 
10222000    1161.4303    39715.454    301.90695   -607.58267    459.86283   -147.71985     524.9912   -607.58267            0   -13.186039            0            0            0            0            0            0 
10223000    838.99387    41585.991    298.97075   -594.67648    455.39044   -139.28604    369.55454   -594.67648            0   -12.592932            0            0            0            0            0            0 
10224000    864.23656    42005.135    294.94644   -582.87467    449.26063   -133.61404    395.81883   -582.87467            0   -12.467275            0            0            0            0            0            0 
10225000    624.34339     42353.99    293.83475   -599.74352     447.5673   -152.17622    233.47413   -599.74352            0   -12.364586            0            0            0            0            0            0 
10226000    703.67883    41974.408    312.65473   -606.68914    476.23379   -130.45535    300.30424   -606.68914            0   -12.476401            0            0            0            0            0            0 
10227000    861.37023    42414.283    300.88267   -581.11125    458.30265    -122.8086    410.00817   -581.11125            0   -12.347009            0            0            0            0            0            0 
10228000    1087.0305    40345.815    306.95394   -599.62456    467.55039   -132.07417    507.53708   -599.62456            0   -12.980021            0            0            0            0            0            0 
10229000    880.93418    41278.257     298.2321    -597.6068    454.26532   -143.34147    386.98181    -597.6068            0   -12.686814            0            0            0            0            0            0 
10230000    1124.3052    40514.922     301.4543   -597.69951    459.17336   -138.52615    525.79045   -597.69951            0   -12.925843            0            0            0            0            0            0 
10231000    918.41421    41105.832     290.4321   -600.13859    442.38441   -157.75418    392.82265   -600.13859            0    -12.74003            0            0            0            0            0            0 
10232000    954.62326    40479.688     298.8683   -610.05599    455.23439    -154.8216    408.74476   -610.05599            0   -12.937095            0            0            0            0            0            0 
10233000    668.39115    41559.906     307.9098   -616.78062    469.00634   -147.77429    257.34333   -616.78062            0   -12.600836            0            0            0            0            0            0 
10234000    820.15025    41471.784    295.67055   -600.37364    450.36359   -150.01005    346.03604   -600.37364            0   -12.627611            0            0            0            0            0            0 
10235000    992.14182    41862.895    302.55324   -577.89714    460.84727   -117.04987    488.67988   -577.89714            0   -12.509635            0            0            0            0            0            0 
10236000    702.96769     41818.45    308.63553    -609.4274    470.11176   -139.31563    289.40973    -609.4274            0   -12.522931            0            0            0            0            0            0 
10237000      777.039    41311.686     299.7056   -607.31404    456.50975   -150.80428    317.35283   -607.31404            0   -12.676547            0            0            0            0            0            0 
10238000     743.7327    42286.517    306.81995   -596.45535    467.34628   -129.10907    329.55496   -596.45535            0   -12.384315            0            0            0            0            0            0 
10239000    992.78639    41850.775    295.94849   -584.58341    450.78695   -133.79646    472.15133   -584.58341            0   -12.513258            0            0            0            0            0            0 
10240000    1016.4573    40136.686    276.61651   -607.77718    421.34058   -186.43659    408.54913   -607.77718            0   -13.047653            0            0            0            0            0            0 
10241000    845.76095    41476.944    301.92734   -596.71519    459.89389    -136.8213    374.77838   -596.71519            0    -12.62604            0            0            0            0            0            0 
10242000    1007.8886    40046.217    273.55325   -607.21258    416.67465   -190.53793    398.10227   -607.21258            0   -13.077129            0            0            0            0            0            0 
10243000    674.43722    41831.865    299.00214   -611.59253    455.43825   -156.15428     255.3029   -611.59253            0   -12.518915            0            0            0            0            0            0 
10244000    701.02279    42098.448    306.56573    -599.7551    466.95907   -132.79603     297.6058    -599.7551            0    -12.43964            0            0            0            0            0            0 
10245000    991.21952    40988.214    295.10683   -596.33872    449.50494   -146.83377    445.68857   -596.33872            0   -12.776588            0            0            0            0            0            0 
10246000    783.02658    41495.671    306.96968   -609.57432    467.57436   -141.99996    331.86565   -609.57432            0   -12.620342            0            0            0            0            0            0 
10247000    1005.3467    41241.255    296.44456   -591.72246    451.54255   -140.17991    464.49732   -591.72246            0   -12.698196            0            0            0            0            0            0 
10248000    796.08911    41751.425    298.03723   -598.50635     453.9685   -144.53785    340.20216   -598.50635            0   -12.543034            0            0            0            0            0            0 
10249000    817.18673    42483.546    288.46663   -573.90379    439.39063   -134.51317    371.79853   -573.90379            0   -12.326879            0            0            0            0            0            0 
10250000    702.69252    41717.904    296.96466   -603.40253    452.33477   -151.06776    276.45939   -603.40253            0   -12.553113            0            0            0            0            0            0 
10251000    1162.4218     39812.46    313.32372   -608.32724    477.25279   -131.07445    543.85544   -608.32724            0   -13.153911            0            0            0            0            0            0 
10252000    969.98034    40977.776    303.04944    -597.1526    461.60307   -135.54953    444.12898    -597.1526            0   -12.779843            0            0            0            0            0            0 
10253000    891.60781    40148.647    314.25518   -627.70702    478.67159   -149.03543    373.02487   -627.70702            0   -13.043766            0            0            0            0            0            0 
10254000    799.58099    41286.945    299.18142   -606.33647    455.71133   -150.62514    330.82475   -606.33647            0   -12.684144            0            0            0            0            0            0 
10255000    896.56873    41371.831    287.09203   -598.08426    437.29683   -160.78743    380.17141   -598.08426            0   -12.658119            0            0            0            0            0            0 
10256000    764.20089    42152.034    289.61812   -589.79357    441.14456   -148.64901    321.13904   -589.79357            0   -12.423826            0            0            0            0            0            0 
10257000    1013.5518    40455.192    280.63538   -599.69755    427.46211   -172.23543    425.75757   -599.69755            0   -12.944928            0            0            0            0            0            0 
10258000    780.54318     41839.41    283.23865   -596.41433    431.42739   -164.98693    311.28871   -596.41433            0   -12.516657            0            0            0            0            0            0 
10259000    759.40288    42281.491    295.88391   -590.82069    450.68858    -140.1321    328.14015   -590.82069            0   -12.385787            0            0            0            0            0            0 
10260000    857.23962    41537.888    299.45952   -596.17345    456.13493   -140.03852    379.26652   -596.17345            0   -12.607515            0            0            0            0            0            0 
10261000    1022.1566    39930.868    289.69703    -612.7351    441.26476   -171.47034     423.7833    -612.7351            0   -13.114905            0            0            0            0            0            0 
10262000    941.58255    41723.772    316.87616   -591.78093    482.66384   -109.11709    463.83441   -591.78093            0   -12.551347            0            0            0            0            0            0 
10263000    878.28785    41739.406    289.28635   -584.76264    440.63921   -144.12343    390.51359   -584.76264            0   -12.546646            0            0            0            0            0            0 
10264000    773.37202    40552.697       300.02   -625.21736    456.98864   -168.22872    289.15857   -625.21736            0   -12.913803            0            0            0            0            0            0 
10265000    894.89316    41408.249    278.43365    -593.9603    424.10845   -169.85185     370.5713    -593.9603            0   -12.646986            0            0            0            0            0            0 
10266000    870.21531    40500.136    295.95003   -613.13871    450.78929   -162.34941    351.64582   -613.13871            0   -12.930562            0            0            0            0            0            0 
10267000    787.18394    42708.526    299.26997   -581.94236     455.8462   -126.09616    364.20926   -581.94236            0   -12.261944            0            0            0            0            0            0 
10268000    929.49649     41090.55    301.25524    -596.9362    458.87015   -138.06605    418.94729    -596.9362            0   -12.744769            0            0            0            0            0            0 
10269000    995.86616    41686.334    302.47551   -584.12414    460.72886   -123.39529    482.04396   -584.12414            0   -12.562619            0            0            0            0            0            0 
10270000    921.82114    40228.096    276.58481   -616.48389     421.2923   -195.19159    345.62752   -616.48389            0   -13.018005            0            0            0            0            0            0 
10271000    820.52674    40949.711    291.47664   -614.24043    443.97545   -170.26498     319.7614   -614.24043            0   -12.788602            0            0            0            0            0            0 
10272000    926.53203    42278.683     309.6284   -576.77705     471.6241   -105.15294    466.13857   -576.77705            0    -12.38661            0            0            0            0            0            0 
10273000    720.03817    41291.464    305.69369    -616.9217    465.63078   -151.29092     282.3115    -616.9217            0   -12.682755            0            0            0            0            0            0 
10274000    917.88871    40887.718    295.86088   -604.73895     450.6535   -154.08545    393.25657   -604.73895            0   -12.807991            0            0            0            0            0            0 
10275000    1074.8973    41332.394    317.81303    -582.3551    484.09088   -98.264227    549.67373    -582.3551            0   -12.670196            0            0            0            0            0            0 
10276000    828.15488    40590.218    286.09936    -622.0371    435.78482   -186.25229    303.98782    -622.0371            0   -12.901866            0            0            0            0            0            0 
10277000    864.56774     41886.54    303.03413   -587.39028    461.57975   -125.81053    402.32989   -587.39028            0   -12.502573            0            0            0            0            0            0 
10278000    865.53378    40565.802    302.05964   -616.14878    460.09541   -156.05337    356.00561   -616.14878            0   -12.909631            0            0            0            0            0            0 
10279000    850.41287    40686.307     279.4021   -612.68525    425.58359   -187.10166    317.50618   -612.68525            0   -12.871395            0            0            0            0            0            0 
10280000    762.14769    41811.846    300.02028   -602.31339    456.98907   -145.32432     319.4203   -602.31339            0   -12.524909            0            0            0            0            0            0 
10281000     902.2289    41042.282    296.03125   -602.06752    450.91301   -151.15451    388.88325   -602.06752            0   -12.759757            0            0            0            0            0            0 
10282000    890.79461    41333.951     300.8081   -600.10742    458.18908   -141.91834    395.06447   -600.10742            0   -12.669719            0            0            0            0            0            0 
10283000    905.41302    40913.289    316.69925   -607.42378    482.39438    -125.0294    415.21095   -607.42378            0   -12.799987            0            0            0            0            0            0 
10284000    930.42934    40050.161    292.06232   -621.70134    444.86756   -176.83378    366.62117   -621.70134            0   -13.075841            0            0            0            0            0            0 
10285000    838.94548    41383.241    283.67861    -598.0007    432.09754   -165.90316     340.4274    -598.0007            0   -12.654628            0            0            0            0            0            0 
10286000    758.15063    41367.484    283.92931    -608.0992     432.4794    -175.6198    281.77423    -608.0992            0   -12.659449            0            0            0            0            0            0 
10287000     782.9767    40857.894    302.91397   -617.44374    461.39672   -156.04703    310.50567   -617.44374            0   -12.817341            0            0            0            0            0            0 
10288000    888.70872    41483.651    299.12448   -590.69274    455.62459   -135.06815    402.59752   -590.69274            0   -12.623998            0            0            0            0            0            0 
10289000    1045.1129    40003.764    301.98794   -605.94019     459.9862   -145.95399    463.77939   -605.94019            0   -13.091007            0            0            0            0            0            0 
10290000    755.17556    41075.923    281.11077    -608.3627    428.18623   -180.17647     272.2116    -608.3627            0   -12.749307            0            0            0            0            0            0 
10291000    857.58047    41619.982    311.73659   -594.93566    474.83528   -120.10037     400.4379   -594.93566            0   -12.582647            0            0            0            0            0            0 
10292000    1023.9999    40121.824    299.99184     -614.342    456.94575   -157.39625    441.78258     -614.342            0   -13.052486            0            0            0            0            0            0 
10293000    832.18229    42236.825    294.27457   -584.19803    448.23724   -135.96079    376.64749   -584.19803            0   -12.398885            0            0            0            0            0            0 
10294000    953.18272    41035.517    304.57921   -595.21699     463.9332   -131.28379    439.15882   -595.21699            0   -12.761861            0            0            0            0            0            0 
10295000    947.20742    40915.255    299.83081   -605.63444    456.70047   -148.93397    416.27134   -605.63444            0   -12.799372            0            0            0            0            0            0 
10296000    858.94818    41652.725    288.06494   -592.56652    438.77877   -153.78775    367.99086   -592.56652            0   -12.572756            0            0            0            0            0            0 
10297000    880.55368    40647.914    289.42954   -608.97091    440.85732    -168.1136    353.88579   -608.97091            0   -12.883553            0            0            0            0            0            0 
10298000    935.02702    40997.203    311.71724   -603.75856     474.8058   -128.95275    430.10191   -603.75856            0   -12.773787            0            0            0            0            0            0 
10299000     1162.437    41151.673    313.21126   -576.57467     477.0815   -99.493171    598.14913   -576.57467            0   -12.725839            0            0            0            0            0            0 
10300000    1015.4823    41001.545    295.76777   -591.56074    450.51167   -141.04907    466.17428   -591.56074            0   -12.772435            0            0            0            0            0            0 
10301000    745.24582    42773.543    302.62666   -590.05938    460.95909   -129.10029     335.7902   -590.05938            0   -12.243305            0            0            0            0            0            0 
10302000     1082.022     40165.84    306.03527   -610.91696    466.15107   -144.76589    489.05832   -610.91696            0   -13.038182            0            0            0            0            0            0 
10303000    874.69641    41841.401    307.45093   -595.47218     468.3074   -127.16478    406.58714   -595.47218            0   -12.516061            0            0            0            0            0            0 
10304000    862.46709    40879.557    286.68313   -607.26155      436.674   -170.58755    343.60361   -607.26155            0   -12.810548            0            0            0            0            0            0 
10305000     565.3683    41965.355    277.43983   -616.72205    422.59467   -194.12739    151.89025   -616.72205            0   -12.479093            0            0            0            0            0            0 
10306000    695.71131    41338.359    307.03859   -612.55438    467.67932   -144.87506    274.55368   -612.55438            0   -12.668368            0            0            0            0            0            0 
10307000     864.9359    40672.911    297.38445   -616.10912    452.97418   -163.13493    349.92142   -616.10912            0   -12.875635            0            0            0            0            0            0 
10308000    856.54561    41642.688    282.95396   -590.83007    430.99375   -159.83632    360.35744   -590.83007            0   -12.575786            0            0            0            0            0            0 
10309000    996.55778    40547.228    305.36592   -607.50104    465.13152   -142.36952    446.93469   -607.50104            0   -12.915545            0            0            0            0            0            0 
10310000    740.47688     41387.14    315.74568   -621.26169     480.9419   -140.31979    306.62389   -621.26169            0   -12.653436            0            0            0            0            0            0 
10311000    1122.8133    40495.322    284.74114   -591.90495    433.71598   -158.18897    504.92517   -591.90495            0     -12.9321            0            0            0            0            0            0 
10312000    906.78629     40304.32    301.57705   -621.81405    459.36033   -162.45372    370.55268   -621.81405            0   -12.993385            0            0            0            0            0            0 
10313000     745.4655    42031.834    294.54648   -597.01045    448.65142   -148.35903    308.60475   -597.01045            0   -12.459355            0            0            0            0            0            0 
10314000    952.66243    40831.412    289.90772   -602.69054    441.58568   -161.10487    406.19062   -602.69054            0   -12.825654            0            0            0            0            0            0 
10315000    794.18672    41116.222    306.12636   -613.35661    466.28981    -147.0668    329.15768   -613.35661            0   -12.736811            0            0            0            0            0            0 
10316000    1005.5342    40956.677    300.92313    -598.5812    458.36429   -140.21691    460.39986    -598.5812            0   -12.786427            0            0            0            0            0            0 
10317000    865.32542    41381.579     312.3534    -599.1577    475.77481    -123.3829    398.84782    -599.1577            0   -12.655137            0            0            0            0            0            0 
10318000    678.44471    41502.446    286.99375   -614.62772    437.14714   -177.48059    233.16206   -614.62772            0   -12.618281            0            0            0            0            0            0 
10319000    847.54108     41962.63    304.22387   -588.09463    463.39196   -124.70267    393.97714   -588.09463            0   -12.479903            0            0            0            0            0            0 
10320000    877.91381    40978.706    297.90015   -598.57598     453.7597   -144.81628    379.85345   -598.57598            0   -12.779553            0            0            0            0            0            0 
10321000    802.29332    42150.994    282.31553   -599.23988     430.0213   -169.21858     323.9744   -599.23988            0   -12.424133            0            0            0            0            0            0 
10322000    972.89627    40415.309    286.77842   -608.94084    436.81914   -172.12169    401.31877   -608.94084            0   -12.957702            0            0            0            0            0            0 
10323000    734.29041    41794.467    297.47004   -606.83401    453.10456   -153.72945    293.84217   -606.83401            0   -12.530117            0            0            0            0            0            0 
10324000    956.73244    40600.996      315.646   -609.76894    480.79007   -128.97887    437.52525   -609.76894            0   -12.898441            0            0            0            0            0            0 
10325000    809.12567    42464.689    301.99852   -587.60733    460.00232   -127.60501     373.4897   -587.60733            0   -12.332353            0            0            0            0            0            0 
10326000    1020.2454    40477.661    314.48301   -603.07617    479.01861   -124.05755    478.21901   -603.07617            0   -12.937742            0            0            0            0            0            0 
10327000    1094.8862    39627.214    294.85536   -609.73712    449.12189   -160.61522    472.14389   -609.73712            0   -13.215402            0            0            0            0            0            0 
10328000    844.81432    40963.698    285.17223   -609.16488    434.37261   -174.79227    329.91123   -609.16488            0   -12.784235            0            0            0            0            0            0 
10329000    909.07355    41929.707    294.54601   -581.57395     448.6507   -132.92326    422.97682   -581.57395            0   -12.489702            0            0            0            0            0            0 
10330000    938.92803    41758.318    302.92087   -580.17811    461.40724   -118.77088    453.03839   -580.17811            0   -12.540964            0            0            0            0            0            0 
10331000    926.42232    41471.331    299.91471   -588.92548    456.82827   -132.09722    428.21859   -588.92548            0   -12.627749            0            0            0            0            0            0 
10332000    861.91368    41535.039    312.65711   -605.90041    476.23741     -129.663    392.43772   -605.90041            0    -12.60838            0            0            0            0            0            0 
10333000    794.71382    40997.554    292.94822   -613.93337    446.21696   -167.71641    307.44877   -613.93337            0   -12.773678            0            0            0            0            0            0 
10334000    911.90118    41292.483    302.91076   -595.01101    461.39183   -133.61919    415.53547   -595.01101            0   -12.682443            0            0            0            0            0            0 
10335000    867.14707    42203.434    313.42931   -592.75521    477.41362   -115.34159    418.38205   -592.75521            0   -12.408695            0            0            0            0            0            0 
10336000    897.63656    41849.784    299.70735   -586.23867    456.51241   -129.72626     418.1338   -586.23867            0   -12.513554            0            0            0            0            0            0 
10337000    828.40562    41071.755    292.08856   -607.93497    444.90752   -163.02745    333.17874   -607.93497            0   -12.750601            0            0            0            0            0            0 
10338000    890.18984    41726.681    294.34541   -595.30246    448.34514   -146.95732    394.75954   -595.30246            0   -12.550472            0            0            0            0            0            0 
10339000    1051.6558    40064.864    296.53736   -608.41439    451.68391   -156.73048    457.75721   -608.41439            0   -13.071043            0            0            0            0            0            0 
10340000    1084.0601    40802.714    286.95286   -584.50617    437.08486   -147.42131    497.66571   -584.50617            0   -12.834674            0            0            0            0            0            0 
10341000    841.68686    42952.352    301.31918   -570.31044    458.96755    -111.3429    415.90322   -570.31044            0   -12.192337            0            0            0            0            0            0 
10342000    1052.3842    40345.035    316.40074   -601.76292    481.93969   -119.82323    499.39009   -601.76292            0   -12.980272            0            0            0            0            0            0 
10343000    811.17508    41266.102    303.68762   -606.13443    462.57514    -143.5593    344.62515   -606.13443            0    -12.69055            0            0            0            0            0            0 
10344000    779.35878    42064.379    300.18981   -587.51218    457.24729   -130.26489    347.84508   -587.51218            0   -12.449715            0            0            0            0            0            0 
10345000    977.41628    40680.901    309.14928   -604.49391     470.8943   -133.59961    446.29092   -604.49391            0   -12.873106            0            0            0            0            0            0 
10346000    969.33411     41545.99    304.67938   -589.06922    464.08578   -124.98344    462.34158   -589.06922            0   -12.605056            0            0            0            0            0            0 
10347000    1047.4457    40332.339    307.23197   -606.26694    467.97387   -138.29307    477.82058   -606.26694            0   -12.984358            0            0            0            0            0            0 
10348000    929.86676    41309.803    315.07833   -597.61141     479.9254   -117.68602    442.52254   -597.61141            0   -12.677125            0            0            0            0            0            0 
10349000    867.03241    40819.455    296.50897   -606.57425    451.64066   -154.93359    361.21937   -606.57425            0   -12.829411            0            0            0            0            0            0 
10350000      878.207    43113.931    317.08407   -567.75047    482.98053   -84.769932    467.42244   -567.75047            0   -12.146644            0            0            0            0            0            0 
10351000    1005.3634    39501.337    323.25343   -624.25437    492.37766   -131.87671    447.29954   -624.25437            0   -13.257514            0            0            0            0            0            0 
10352000    937.60911    42215.735    302.19004   -577.08984    460.29403   -116.79581    460.46499   -577.08984            0   -12.405079            0            0            0            0            0            0 
10353000    853.44229    41118.029    307.71135   -606.96907    468.70406   -138.26501    373.51384   -606.96907            0   -12.736251            0            0            0            0            0            0 
[...]
14939000    924.40881    41283.526    296.37534   -598.58952    451.43712    -147.1524    409.41369   -598.58952            0   -12.685194            0            0            0            0            0            0 
14940000    944.30547    41339.546    305.27515   -591.21226    464.99326   -126.21901    443.09793   -591.21226            0   -12.668004            0            0            0            0            0            0 
14941000    858.85294    40468.843    300.12486   -622.06588    457.14837   -164.91751    341.97455   -622.06588            0   -12.940561            0            0            0            0            0            0 
14942000    927.41881    41089.643    316.85328   -602.45801    482.62899   -119.82902    435.92697   -602.45801            0    -12.74505            0            0            0            0            0            0 
14943000    1003.3459    40752.208    290.05129   -599.73647    441.80436   -157.93211    438.38562   -599.73647            0   -12.850581            0            0            0            0            0            0 
14944000    775.26142    42467.368    291.41825   -584.06929    443.88651   -140.18278    339.96996   -584.06929            0   -12.331575            0            0            0            0            0            0 
14945000    867.04816    42131.681    298.76456    -580.1965    455.07637   -125.12014    407.63532    -580.1965            0   -12.429828            0            0            0            0            0            0 
14946000    691.92454    41923.664    315.64951   -605.39128    480.79541   -124.59587    298.45623   -605.39128            0   -12.491502            0            0            0            0            0            0 
14947000    780.03106     41785.65    290.27451   -595.87378    442.14437   -153.72941    321.62218   -595.87378            0    -12.53276            0            0            0            0            0            0 
14948000    771.73719    42042.229    296.35269   -594.80723    451.40262   -143.40461    329.78049   -594.80723            0   -12.456274            0            0            0            0            0            0 
14949000    861.46758    41667.489    295.88813   -587.90601    450.69501     -137.211    386.28353   -587.90601            0   -12.568301            0            0            0            0            0            0 
14950000    911.05847    41433.709    295.05164   -590.67863    449.42086   -141.25777    409.26585   -590.67863            0   -12.639215            0            0            0            0            0            0 
14951000    972.37452    40992.081    314.27861   -599.88557    478.70727    -121.1783    460.13389   -599.88557            0   -12.775383            0            0            0            0            0            0 
14952000    828.52258    41458.931    299.47899   -600.79217    456.16458   -144.62759    356.32698   -600.79217            0   -12.631526            0            0            0            0            0            0 
14953000    950.44425    40845.068    290.34298   -603.36166    442.24866   -161.11299    405.05088   -603.36166            0   -12.821366            0            0            0            0            0            0 
14954000    992.73905    40357.215    296.12542   -602.97927    451.05645   -151.92282     432.3722   -602.97927            0   -12.976355            0            0            0            0            0            0 
14955000     1054.775    41168.093    305.94707   -582.92859    466.01672   -116.91188    516.36911   -582.92859            0   -12.720763            0            0            0            0            0            0 
14956000    862.85258    41452.316     301.1475   -597.96855    458.70604   -139.26251    382.36596   -597.96855            0   -12.633541            0            0            0            0            0            0 
14957000    845.61846    41296.509    293.91154   -598.62818    447.68428    -150.9439    358.34439   -598.62818            0   -12.681206            0            0            0            0            0            0 
14958000    843.80121    41373.446     299.1623    -596.4455     455.6822    -140.7633    368.37729    -596.4455            0   -12.657625            0            0            0            0            0            0 
14959000    756.36457    41301.855     294.2881   -605.06774    448.25785   -156.80989    298.78267   -605.06774            0   -12.679565            0            0            0            0            0            0 
14960000     756.2743    41949.976    292.42288   -594.24042    445.41676   -148.82366    313.86296   -594.24042            0   -12.483667            0            0            0            0            0            0 
14961000     1095.503    40485.823    305.14739   -595.88927    464.79865   -131.09062    515.74276   -595.88927            0   -12.935134            0            0            0            0            0            0 
14962000    1028.3663    41149.956    311.48497   -593.40883    474.45202   -118.95682    498.19652   -593.40883            0    -12.72637            0            0            0            0            0            0 
14963000    953.47558    41167.533    298.82661   -594.89643    455.17088   -139.72555    432.72808   -594.89643            0   -12.720936            0            0            0            0            0            0 
14964000     827.4464     40272.29    288.63176   -623.88097    439.64215   -184.23881    301.74531   -623.88097            0   -13.003719            0            0            0            0            0            0 
14965000     986.0105    42312.648    308.15517   -575.71355    469.38009   -106.33346    502.12037   -575.71355            0   -12.376667            0            0            0            0            0            0 
14966000    827.12515    41499.984     282.7913   -604.13195      430.746   -173.38595    327.21889   -604.13195            0    -12.61903            0            0            0            0            0            0 
14967000     1052.147    39936.854    293.64528   -612.15461     447.2787   -164.87591    447.93452   -612.15461            0   -13.112939            0            0            0            0            0            0 
14968000    1035.6692    40355.773    298.04819   -608.00917     453.9852   -154.02397    455.51658   -608.00917            0   -12.976819            0            0            0            0            0            0 
14969000    830.72489    41254.864    284.82061   -600.52486    433.83702   -166.68784    333.12599   -600.52486            0   -12.694007            0            0            0            0            0            0 
14970000    849.66726    41928.328     279.3802   -587.92463    425.55023   -162.37441    357.18153   -587.92463            0   -12.490113            0            0            0            0            0            0 
14971000    982.45082    41023.974    290.94094   -595.28663    443.15947   -152.12716    435.66588   -595.28663            0   -12.765451            0            0            0            0            0            0 
14972000    965.78888    40928.049    295.77004   -596.99035    450.51514   -146.47521      429.998   -596.99035            0    -12.79537            0            0            0            0            0            0 
14973000    885.62008     41757.01    318.05412   -596.56865    484.45811   -112.11053    427.21718   -596.56865            0   -12.541357            0            0            0            0            0            0 
14974000     1019.657     41275.04    284.24968   -585.83983    432.96738   -152.87244    460.91431   -585.83983            0   -12.687802            0            0            0            0            0            0 
14975000    895.85306    42357.819    309.72773   -578.68893     471.7754   -106.91354    446.49551   -578.68893            0   -12.363468            0            0            0            0            0            0 
14976000    855.76175    41745.565    292.73408   -593.97142    445.89078   -148.08064    372.92101   -593.97142            0   -12.544795            0            0            0            0            0            0 
14977000    940.59803    41464.682     293.3073   -584.73846    446.76391   -137.97455    430.82376   -584.73846            0   -12.629773            0            0            0            0            0            0 
14978000     929.8899    41760.382    319.29359   -589.85421    486.34605   -103.50815    462.82486   -589.85421            0   -12.540344            0            0            0            0            0            0 
14979000     822.0896    41937.883    305.82798   -598.34123    465.83532   -132.50591    370.30137   -598.34123            0   -12.487267            0            0            0            0            0            0 
14980000    836.29093    41768.968    301.64041   -585.83761    459.45685   -126.38076    383.05218   -585.83761            0   -12.537766            0            0            0            0            0            0 
14981000    891.19424    41912.404    305.11288   -594.54015    464.74609   -129.79406     414.9479   -594.54015            0   -12.494858            0            0            0            0            0            0 
14982000    826.05465    41206.951     284.7494   -611.53196    433.72855    -177.8034    318.62332   -611.53196            0   -12.708767            0            0            0            0            0            0 
14983000    961.14925    40878.254    297.88458   -606.99788    453.73599   -153.26189    419.74397   -606.99788            0   -12.810957            0            0            0            0            0            0 
14984000     819.9777    40916.566    292.14227   -611.11138    444.98934   -166.12204    323.18009   -611.11138            0   -12.798961            0            0            0            0            0            0 
14985000    966.44341    40851.704     313.5643   -604.95706    477.61924   -127.33782    448.45003   -604.95706            0   -12.819283            0            0            0            0            0            0 
14986000    822.31864    41872.891    315.45114   -595.15972    480.49327   -114.66645    387.50147   -595.15972            0   -12.506649            0            0            0            0            0            0 
14987000    821.74221    41479.639     296.6401   -598.06623    451.84041   -146.22582    350.87726   -598.06623            0   -12.625219            0            0            0            0            0            0 
14988000    834.56284     41277.47    296.06634   -608.25368    450.96646   -157.28723    345.11089   -608.25368            0   -12.687055            0            0            0            0            0            0 
14989000    1137.3928    40366.155    301.33979   -592.27635    458.99895    -133.2774    536.30459   -592.27635            0   -12.973481            0            0            0            0            0            0 
14990000    954.54782    40178.413    295.01082    -621.9836    449.35869   -172.62491    386.70283    -621.9836            0   -13.034102            0            0            0            0            0            0 
14991000    831.90121    40467.445    292.31414   -616.72801    445.25113   -171.47688    319.49139   -616.72801            0   -12.941008            0            0            0            0            0            0 
14992000    926.65996    40435.114    299.29335   -609.12575    455.88181   -153.24394    393.21176   -609.12575            0   -12.951356            0            0            0            0            0            0 
14993000    959.54747    40853.417    301.70444    -607.7939    459.55437   -148.23953    423.46382    -607.7939            0   -12.818745            0            0            0            0            0            0 
14994000    837.60171    41664.377    282.99907   -599.99425    431.06247   -168.93178    340.02199   -599.99425            0    -12.56924            0            0            0            0            0            0 
14995000     850.6202    40761.808    294.68504   -612.77417    448.86247    -163.9117    341.75577   -612.77417            0   -12.847554            0            0            0            0            0            0 
14996000    764.44734    41260.036    292.76657   -612.70261    445.94026   -166.76234    293.23261   -612.70261            0   -12.692416            0            0            0            0            0            0 
14997000    1011.5608     39782.95      296.052   -617.92271    450.94461    -166.9781    419.92291   -617.92271            0   -13.163668            0            0            0            0            0            0 
14998000    798.24886    40908.733    298.99057    -610.7027    455.42063   -155.28208     320.9627    -610.7027            0   -12.801412            0            0            0            0            0            0 
14999000    760.39799    40943.276    296.39711   -618.97466    451.47029   -167.50437    286.54119   -618.97466            0   -12.790612            0            0            0            0            0            0 
15000000    874.69196    41334.832    294.38897   -594.03053     448.4115   -145.61903    381.66813   -594.03053            0   -12.669449            0            0            0            0            0            0 
Loop time of 1870.2 on 8 procs for 5000000 steps with 512 atoms

Pair  time (%) = 1116.28 (59.6877)
Bond  time (%) = 0.474509 (0.0253721)
Neigh time (%) = 34.8015 (1.86084)
Comm  time (%) = 550.219 (29.4204)
Outpt time (%) = 0.268792 (0.0143724)
Other time (%) = 168.156 (8.99135)

Nlocal:    64 ave 68 max 56 min
Histogram: 1 0 0 0 0 2 0 1 3 1
Nghost:    1574.25 ave 1594 max 1552 min
Histogram: 1 0 1 1 0 0 4 0 0 1
Neighs:    8012.12 ave 8551 max 7169 min
Histogram: 1 0 0 0 1 1 1 3 0 1

Total # of neighbors = 64097
Ave neighs/atom = 125.189
Ave special neighs/atom = 0
Neighbor list builds = 79379
Dangerous builds = 0

Averages
Group Pressure(MPa) Volume(m3) Temperature(K) PE(J) KE(J) ET(J) ET^2(J) H(J) H^2(J^2) V^2(m6) V*H(m3*J) Hconf(J) Uext*Hconf(J^2) V*Hconf(m3*J) Uext(J)
Block1 90.057050362268910249 4.1261309311222266288e-26 299.42762858904330869 -4.1703807541848188279e-18 3.1687487691680115433e-18 -1.0016319850168034327e-18 1.0255117111508165271e-36 2.7101329556014842205e-18 7.5685191613867603372e-36 1.7030525910871672463e-51 1.1175708112834251547e-43 -4.5861581356652751537e-19 1.9313878767689282047e-36 -1.8990666197629253545e-44 -4.1703807541848188279e-18
Block2 90.092461117310620011 4.1276971138552084716e-26 300.21334195123358768 -4.1691801178693584019e-18 3.1770637274806144262e-18 -9.9211639038873492385e-19 1.0058160208545050291e-36 2.7221232087056747593e-18 7.6504863424496277458e-36 1.7043812674573660853e-51 1.1227903597839036882e-43 -4.5494051877494149646e-19 1.916686768703890029e-36 -1.8858739020939934872e-44 -4.1691801178693584019e-18
Block3 90.120946016257860833 4.1257372954958339108e-26 300.2370012454633752 -4.1716733731828577631e-18 3.177314106377927098e-18 -9.9435926680493297624e-19 1.009856133828974506e-36 2.7192114451674173887e-18 7.6239297153610441245e-36 1.7027415330489727547e-51 1.1209954351775513527e-43 -4.581026612105120204e-19 1.9292905699465135193e-36 -1.8987984038619744559e-44 -4.1716733731828577631e-18
Block4 90.159271964045473169 4.1283005934698277149e-26 300.15638465239027255 -4.1685942269969057758e-18 3.1764609662342466387e-18 -9.9213326076266048519e-19 1.0072394710275724028e-36 2.7256706548230309269e-18 7.6701675643579230908e-36 1.704846348604503428e-51 1.1245290012822587727e-43 -4.5079031141121927486e-19 1.8991815964927347975e-36 -1.8683917572015150473e-44 -4.1685942269969057758e-18
Block5 90.388796194661836125 4.1268723240864549177e-26 300.37949730458967679 -4.1681424271631177738e-18 3.1788220975212107405e-18 -9.8932032964190549258e-19 9.9920643068721486554e-37 2.7369310170546997016e-18 7.7196155003264413255e-36 1.7036291045156500295e-51 1.1287945037012673778e-43 -4.4189108046651672037e-19 1.8619556895658225444e-36 -1.8306123668958477896e-44 -4.1681424271631177738e-18
Ave_blocks 90.163705130908937235 4.1269476516059105583e-26 300.08277074854402144 -4.1695941798794112463e-18 3.1756819333564023975e-18 -9.9391224652300730804e-19 1.0095259535098165993e-36 2.7228138562704613224e-18 7.6465436567763593248e-36 1.7037301689427318494e-51 1.122936022245681309e-43 -4.5286807708594338623e-19 1.9077005002955778858e-36 -1.8765486099632511771e-44 -4.1695941798794112463e-18
Stdev_blocks 0.11744354472072927875 9.5182076538794243549e-30 0.33571201652882443067 1.2822389009611068143e-21 3.5527350771988088061e-21 4.1777931920696816274e-21 8.7308375329598421253e-39 8.7374496069338857965e-21 5.0024674565028374341e-38 7.8949515670625512709e-55 3.7264452650669395777e-46 6.1570110466635855799e-21 2.5585681004546059485e-38 2.5556791040041698955e-46 1.2822389009611068143e-21






Properties
Group rho(kg/m3) Cp(J/K) Cp_conf(J/K) Cp_id(J/K) Cp2(J/K) kT(1/Pa) aP(1/K) aP2(1/K) Cv(J/K) uJT(K/Pa) sos(m/s) Cv2(J/K) uJT2(K/Pa) sos2(m/s) CvNVT(J/K)
Block1 330.55747352328086208 1.8071581384002781045e-19 3.1904283652763799447e-21 3.0399476760396199873e-20 3.3589905125672576808e-20 3.2650829742745437602e-09 -0.0013030403025983804816 -0.0013230937147058342406 1.7429106210329689216e-19 -3.1740487536398892926e-07 980.14407587067375971 2.6965881600930286986e-20 -1.7150341915905121241e-06 1074.3022257780132804 1.7970781612397780009e-20
Block2 330.43204925085728973 1.9329868720540590796e-19 3.1652237291749468861e-21 3.0424544323230390761e-20 3.3589768052405337648e-20 3.4655794824316141459e-09 -0.0015957989719989837396 -0.0015608948076063762587 1.8419288297590063507e-19 -3.158425400339381256e-07 957.30210912036557147 2.4877941528715621739e-20 -1.8046989616550702906e-06 1085.8435784365856307 1.7295018906553039562e-20
Block3 330.58901193419501396 1.8466048233634973383e-19 1.2206868608184553825e-21 3.0425301387805924147e-20 3.1645988248624379529e-20 3.3370783632710885792e-09 -0.0017133930894988541951 -0.0017113379361189371992 1.7376332048124675528e-19 -3.3835694090694770136e-07 981.47788754120028898 2.0774952222968709173e-20 -1.9735739726254619052e-06 1175.0650374663860021 1.695859263329719403e-20
Block4 330.38374632299991163 1.9365782697748794983e-19 3.6664151149886491667e-21 3.0422722303545509036e-20 3.4089137418534155193e-20 3.2719540179845771019e-09 -0.0013822040560273400438 -0.0014398616365250409711 1.8642253549169885549e-19 -3.0161647411593778479e-07 980.2918440639164146 2.6237626713914347196e-20 -1.7344189717192188141e-06 1096.3085444647308577 1.8419034685261779573e-20
Block5 330.49808884503119089 1.8368681607689207179e-19 3.9910280385057062715e-21 3.0429863820449382634e-20 3.4420891858955088905e-20 3.047557256163328247e-09 -0.0013654688037134290329 -0.0013585569629045331479 1.7610273424522093114e-19 -3.168188977371190104e-07 1017.6431898137677763 2.6913395144922818871e-20 -1.6882123140189523396e-06 1126.8507613683921136 1.6417459824903311031e-20
Ave_blocks 330.49207397527283092 1.8720392528723266588e-19 3.0467564217528276808e-21 3.042038171908548129e-20 3.3467138140838305209e-20 3.2774504188250307804e-09 -0.0014719810447673974986 -0.0014787490115721444069 1.7895450705947282346e-19 -3.1800794563158628911e-07 983.371821281984694 2.5153959442290354385e-20 -1.7831876823218432218e-06 1111.6740295028216678 1.7412177532482620841e-20
Stdev_blocks 0.07622085699595332331 5.2864679940373076177e-21 9.6382902570555046048e-22 1.0713881586768700949e-23 9.6366239046284030725e-22 1.3563337839769411739e-10 0.00015592074525959566519 0.00014214954630349121122 5.2922731607446477174e-21 1.1740770479064143414e-08 19.378587040078560477 2.3153790519801463633e-21 1.027163869020944716e-07 36.190371999035065187 7.1200120314097983554e-22






