LAMMPS (28 Oct 2012)
Scanning data file ...
Reading data file ...
  orthogonal box = (0 0 0) to (100 100 100)
  2 by 2 by 2 MPI processor grid
  512 atoms
Finding 1-2 1-3 1-4 neighbors ...
  0 = max # of 1-2 neighbors
  0 = max # of 1-3 neighbors
  0 = max # of 1-4 neighbors
  1 = max # of special neighbors
WARNING: Resetting reneighboring criteria during minimization (min.cpp:173)
Setting up minimization ...
Memory usage per processor = 4.05499 Mbytes
Step Temp E_pair E_mol TotEng Press 
       0       500.15    1409.7233            0    2171.5488    447.34124 
     701       500.15   -217.27527            0    544.55018    34.596342 
Loop time of 0.053901 on 8 procs for 701 steps with 512 atoms

Minimization stats:
  Stopping criterion = energy tolerance
  Energy initial, next-to-last, final = 
         1409.72334813     -217.256630745     -217.275265106
  Force two-norm initial, final = 5034.49 0.337455
  Force max component initial, final = 2457.89 0.147661
  Final line search alpha, max atom move = 0.254892 0.0376377
  Iterations, force evaluations = 701 710

Pair  time (%) = 0.00897348 (16.6481)
Bond  time (%) = 5.91278e-05 (0.109697)
Neigh time (%) = 0.00314075 (5.82688)
Comm  time (%) = 0.0214343 (39.7661)
Outpt time (%) = 0 (0)
Other time (%) = 0.0202934 (37.6493)

Nlocal:    64 ave 74 max 52 min
Histogram: 1 0 0 1 1 2 0 2 0 1
Nghost:    235.125 ave 266 max 224 min
Histogram: 4 0 2 0 0 1 0 0 0 1
Neighs:    316.25 ave 371 max 226 min
Histogram: 1 0 0 1 1 1 0 1 0 3

Total # of neighbors = 2530
Ave neighs/atom = 4.94141
Ave special neighs/atom = 0
Neighbor list builds = 60
Dangerous builds = 0
Setting up run ...
Memory usage per processor = 3.36354 Mbytes
Step Temp E_pair E_mol TotEng Press Volume 
     701       500.15   -217.27527            0    544.55018    34.596342      1000000 
 5000701    496.10312   -353.10656            0    402.55471    925.25327    61271.317 
Loop time of 1492.82 on 8 procs for 5000000 steps with 512 atoms

Pair  time (%) = 798.087 (53.4618)
Bond  time (%) = 0.476277 (0.0319046)
Neigh time (%) = 37.6386 (2.52131)
Comm  time (%) = 499.727 (33.4755)
Outpt time (%) = 4.25875e-05 (2.85283e-06)
Other time (%) = 156.888 (10.5096)

Nlocal:    64 ave 71 max 56 min
Histogram: 1 0 0 1 2 1 1 0 1 1
Nghost:    1232 ave 1272 max 1185 min
Histogram: 1 0 2 0 1 1 0 0 1 2
Neighs:    5393.25 ave 6230 max 4536 min
Histogram: 1 1 0 0 3 0 1 0 1 1

Total # of neighbors = 43146
Ave neighs/atom = 84.2695
Ave special neighs/atom = 0
Neighbor list builds = 103003
Dangerous builds = 14
Setting up run ...
Memory usage per processor = 3.96867 Mbytes
Step Press Volume Temp PotEng KinEng TotEng Enthalpy E_vdwl E_coul E_tail E_long E_bond E_angle E_dihed E_impro E_mol 
10000000    925.25327    61271.317    496.10312   -353.10656    755.66127    402.55471    1229.3419   -353.10656            0   -8.5470587            0            0            0            0            0            0 
10001000    899.46686    58419.025    514.95977   -391.61229     784.3836     392.7713    1159.1005   -391.61229            0   -8.9643664            0            0            0            0            0            0 
10002000     589.9551    62064.323    483.61358   -380.33145    736.63727    356.30582    890.30043   -380.33145            0   -8.4378516            0            0            0            0            0            0 
10003000    921.77123    57017.924    489.75969   -401.31019    745.99899    344.68881    1111.1858   -401.31019            0   -9.1846477            0            0            0            0            0            0 
10004000    1035.6282    59647.085    521.61045   -348.40136    794.51387    446.11251    1346.9967   -348.40136            0   -8.7798011            0            0            0            0            0            0 
10005000    1057.7155    57175.048    497.96131   -371.03765    758.49165      387.454    1269.4189   -371.03765            0   -9.1594072            0            0            0            0            0            0 
10006000     975.5951    58456.394    526.56762   -373.44119     802.0646    428.62341    1260.3441   -373.44119            0   -8.9586358            0            0            0            0            0            0 
10007000    871.11008    60580.739    504.04086   -375.33524    767.75197    392.41673    1162.0494   -375.33524            0   -8.6444892            0            0            0            0            0            0 
10008000    897.30988    56255.456    471.87121   -399.48424    718.75136    319.26712    1055.4454   -399.48424            0   -9.3091335            0            0            0            0            0            0 
10009000    772.28943    61031.702    516.79721    -381.0701    787.18237    406.11227    1093.5153    -381.0701            0   -8.5806152            0            0            0            0            0            0 
10010000    1137.3807    55646.144    503.56384   -374.72774    767.02539    392.29765    1315.3298   -374.72774            0   -9.4110662            0            0            0            0            0            0 
10011000    775.00845    59531.671    477.29539   -380.63281    727.01345    346.38064    1019.2495   -380.63281            0   -8.7968225            0            0            0            0            0            0 
10012000     926.8978    58075.123    483.73587   -375.69847    736.82354    361.12507    1146.1761   -375.69847            0   -9.0174505            0            0            0            0            0            0 
10013000    1014.8741    57332.422    492.91888   -370.33218    750.81105    380.47887    1229.0502   -370.33218            0   -9.1342651            0            0            0            0            0            0 
10014000    890.32547    58456.587    527.40828   -381.09412    803.34509    422.25097    1181.2796   -381.09412            0   -8.9586063            0            0            0            0            0            0 
10015000    956.39539    58045.389    515.61219   -375.52702    785.37735    409.85033    1219.4701   -375.52702            0   -9.0220697            0            0            0            0            0            0 
10016000    879.96897    59286.005    492.54648   -373.35683    750.24381    376.88698    1137.7307   -373.35683            0   -8.8332743            0            0            0            0            0            0 
10017000    1001.3468    58574.563    477.15642   -367.59203    726.80176    359.20973    1214.6102   -367.59203            0   -8.9405625            0            0            0            0            0            0 
10018000    1019.3937    60385.241    503.24406   -353.28175    766.53829    413.25654    1310.9925   -353.28175            0   -8.6724759            0            0            0            0            0            0 
10019000    966.54111    56391.931     481.7057   -380.77781    733.73119    352.95339    1147.8547   -380.77781            0   -9.2866042            0            0            0            0            0            0 
10020000    740.41745     60875.76    488.25512   -374.59742    743.70723    369.10981    1026.4602   -374.59742            0   -8.6025956            0            0            0            0            0            0 
10021000    834.03298    58085.887    522.48061   -397.59414     795.8393    398.24516    1104.7738   -397.59414            0   -9.0157794            0            0            0            0            0            0 
10022000    897.35467    57250.627    504.36451   -394.60292    768.24496    373.64204    1122.8808   -394.60292            0   -9.1473155            0            0            0            0            0            0 
10023000    912.70981    59265.123    483.49599   -375.42504    736.45816    361.03312    1149.9074   -375.42504            0   -8.8363867            0            0            0            0            0            0 
10024000    816.37402    59055.622    490.52895   -388.41799    747.17073    358.75274    1061.8677   -388.41799            0    -8.867734            0            0            0            0            0            0 
10025000    892.90587    59588.218    499.10986   -368.47786    760.24111    391.76324    1167.7279   -368.47786            0   -8.7884747            0            0            0            0            0            0 
10026000    800.71838    61618.444    518.00707     -372.239    789.02523    416.78623    1136.3452     -372.239            0    -8.498909            0            0            0            0            0            0 
10027000    941.50397    56010.012    491.91816    -395.8762    749.28676    353.41055    1122.4767    -395.8762            0   -9.3499273            0            0            0            0            0            0 
10028000     884.1593    59576.666    502.21826   -381.53273    764.97581    383.44308    1151.6578   -381.53273            0   -8.7901787            0            0            0            0            0            0 
10029000    950.06601    58241.059    493.43776   -381.41814     751.6014    370.18326    1177.1561   -381.41814            0   -8.9917586            0            0            0            0            0            0 
10030000    975.01522    56442.464    531.19204   -405.88307    809.10849    403.22542    1205.8145   -405.88307            0   -9.2782899            0            0            0            0            0            0 
10031000    858.84378    61215.828    496.97171   -363.54389     756.9843    393.44042    1160.1904   -363.54389            0   -8.5548062            0            0            0            0            0            0 
10032000    1001.3516    55574.125    500.64354   -397.15131     762.5772    365.42589    1177.0129   -397.15131            0   -9.4232621            0            0            0            0            0            0 
10033000    933.40039    59009.408    468.98432   -362.53578    714.35407     351.8183    1155.0949   -362.53578            0   -8.8746788            0            0            0            0            0            0 
10034000    937.08196    58899.874     488.5418   -368.77497    744.14391    375.36894     1180.317   -368.77497            0   -8.8911827            0            0            0            0            0            0 
10035000    838.78541    57947.175    487.50726   -392.52033    742.56809    350.04777    1058.9054   -392.52033            0   -9.0373612            0            0            0            0            0            0 
10036000    827.91689    57470.587    477.75076    -399.7808    727.70706    327.92626    1021.8444    -399.7808            0   -9.1123055            0            0            0            0            0            0 
10037000    870.10468    61581.444    476.88714   -352.24538     726.3916    374.14622    1155.5891   -352.24538            0   -8.5040153            0            0            0            0            0            0 
10038000    844.03462    58758.211    512.11201   -389.03728    780.04591    391.00862    1114.2857   -389.03728            0    -8.912619            0            0            0            0            0            0 
10039000    969.79118    55854.599    478.41023     -393.148    728.71156    335.56356     1125.538     -393.148            0   -9.3759431            0            0            0            0            0            0 
10040000    869.32779    58327.537    468.35066   -383.18088    713.38889    330.20801    1069.6993   -383.18088            0   -8.9784273            0            0            0            0            0            0 
10041000    899.31379    59536.655    526.19454   -373.83336    801.49633    427.66296    1208.5201   -373.83336            0   -8.7960861            0            0            0            0            0            0 
10042000     891.9008     59574.19    510.70787   -365.04284    777.90713    412.86429    1187.7731   -365.04284            0   -8.7905441            0            0            0            0            0            0 
10043000    890.42532    58657.892    499.58481   -377.48176    760.96456     383.4828    1145.2107   -377.48176            0   -8.9278616            0            0            0            0            0            0 
10044000    880.31759     58111.92    486.69447   -382.99397    741.33006     358.3361    1104.4077   -382.99397            0   -9.0117406            0            0            0            0            0            0 
10045000    717.73178    59588.678    489.63881   -395.31177    745.81487     350.5031    974.24054   -395.31177            0   -8.7884069            0            0            0            0            0            0 
10046000    909.57987    60505.468    512.03115   -353.93932    779.92274    425.98342     1228.606   -353.93932            0   -8.6552433            0            0            0            0            0            0 
10047000    976.05645    57765.312    525.16608   -378.58659    799.92979     421.3432    1243.6198   -378.58659            0   -9.0658135            0            0            0            0            0            0 
10048000    746.65252     59557.19    484.20966   -387.84765    737.54521    349.69756    998.22539   -387.84765            0   -8.7930533            0            0            0            0            0            0 
10049000    794.13416    60345.599    474.12623   -370.23866     722.1862    351.94754    1050.8481   -370.23866            0   -8.6781729            0            0            0            0            0            0 
10050000    928.47251    56540.345    490.81114   -403.27229    747.60056    344.32827    1109.9309   -403.27229            0   -9.2622276            0            0            0            0            0            0 
10051000    950.74531    59444.762    493.34785   -366.67055    751.46445     384.7939    1209.0339   -366.67055            0   -8.8096836            0            0            0            0            0            0 
10052000    864.08442    60372.103    513.88068   -366.61409    782.73993    416.12584    1176.9221   -366.61409            0   -8.6743631            0            0            0            0            0            0 
10053000    946.52637    58785.867     505.0409   -366.54376    769.27523    402.73147    1214.2184   -366.54376            0    -8.908426            0            0            0            0            0            0 
10054000    955.44847    57586.399    489.28271   -379.94097    745.27246    365.33149     1167.754   -379.94097            0   -9.0939797            0            0            0            0            0            0 
10055000    851.78538    58416.646    463.19232   -372.60365    705.53174    332.92809     1058.604   -372.60365            0   -8.9647315            0            0            0            0            0            0 
10056000    797.56035    59158.456    521.12764   -392.03248    793.77847    401.74598    1089.8534   -392.03248            0   -8.8523194            0            0            0            0            0            0 
10057000    871.59025    58832.875    529.43275   -389.76272    806.42875    416.66604    1164.5054   -389.76272            0   -8.9013081            0            0            0            0            0            0 
10058000    993.80741    56994.123    515.81487    -390.5138    785.68608    395.17228    1221.2258    -390.5138            0   -9.1884832            0            0            0            0            0            0 
10059000    828.43771    60395.856    525.97543   -378.88048    801.16258     422.2821    1151.9797   -378.88048            0   -8.6709517            0            0            0            0            0            0 
10060000    924.12976    58715.919    507.14757   -376.28396     772.4841    396.20013     1187.543   -376.28396            0   -8.9190385            0            0            0            0            0            0 
10061000    899.43741    58201.504    476.01911   -379.24615    725.06942    345.82327    1109.2741   -379.24615            0   -8.9978696            0            0            0            0            0            0 
10062000    850.78579    59338.844    500.39235   -375.98986    762.19459    386.20473    1122.4715   -375.98986            0   -8.8254087            0            0            0            0            0            0 
10063000    864.55541    59077.869    500.39752   -379.56372    762.20247    382.63875    1127.5312   -379.56372            0   -8.8643946            0            0            0            0            0            0 
10064000    808.13077    59906.086    494.93554   -380.71289    753.88282    373.16992    1079.2086   -380.71289            0   -8.7418421            0            0            0            0            0            0 
10065000    914.99564     58245.87    510.76978   -384.30406    778.00143    393.69737    1170.9461   -384.30406            0   -8.9910159            0            0            0            0            0            0 
10066000    842.94701    57661.212    520.15005   -394.68785    792.28941    397.60156    1106.4607   -394.68785            0   -9.0821806            0            0            0            0            0            0 
10067000    829.13854    60839.149    495.57858   -368.15484    754.86229    386.70745    1122.3827   -368.15484            0   -8.6077723            0            0            0            0            0            0 
10068000    1049.0776    56742.746    477.34933   -377.55453     727.0956    349.54107    1217.6892   -377.55453            0   -9.2291893            0            0            0            0            0            0 
10069000    730.26361    61168.963    486.53295   -375.43973    741.08404    365.64431    1017.1027   -375.43973            0   -8.5613605            0            0            0            0            0            0 
10070000     929.6216    56864.794    493.49186   -391.39829    751.68381    360.28552    1131.2344   -391.39829            0   -9.2093808            0            0            0            0            0            0 
10071000    822.28278     60717.92    548.70502   -384.06988    835.78415    451.71427    1179.8527   -384.06988            0   -8.6249585            0            0            0            0            0            0 
10072000    859.02255    58008.672    511.85662   -395.26945     779.6569    384.38745    1111.1179   -395.26945            0   -9.0277803            0            0            0            0            0            0 
10073000    658.69583     61870.19    506.20438   -376.30153    771.04745    394.74592     989.0959   -376.30153            0   -8.4643274            0            0            0            0            0            0 
10074000    884.66387    56736.607    469.90036   -393.02733    715.74938    322.72204    1054.7329   -393.02733            0   -9.2301879            0            0            0            0            0            0 
10075000     779.0505    60440.076    504.01082   -380.77137    767.70622    386.93485     1073.634   -380.77137            0   -8.6646076            0            0            0            0            0            0 
10076000    1013.0894    56572.456    521.61169   -386.85803    794.51576    407.65773    1243.5084   -386.85803            0   -9.2569703            0            0            0            0            0            0 
10077000    709.52021    60196.053    490.26864   -389.03228    746.77421    357.74193    980.62808   -389.03228            0   -8.6997322            0            0            0            0            0            0 
10078000    1070.7584    55692.895    510.46793   -390.92123    777.54165    386.62042    1256.3158   -390.92123            0   -9.4031662            0            0            0            0            0            0 
10079000    796.82536    59717.538      472.861   -373.78603    720.25901    346.47298    1040.4433   -373.78603            0   -8.7694431            0            0            0            0            0            0 
10080000    703.82336     59125.18     491.9017   -397.12114    749.26168    352.14054    959.03342   -397.12114            0   -8.8573015            0            0            0            0            0            0 
10081000    1035.2071    55980.356    491.87021   -393.77803    749.21372    355.43569    1200.5954   -393.77803            0   -9.3548805            0            0            0            0            0            0 
10082000    861.84205    60187.896    484.04904   -365.28289    737.30056    372.01768    1128.5243   -365.28289            0   -8.7009112            0            0            0            0            0            0 
10083000    935.58592    59084.939    499.37758   -371.25604    760.64889    389.39286    1195.5809   -371.25604            0    -8.863334            0            0            0            0            0            0 
10084000    839.94131    58864.272    541.79092   -388.42618    825.25265    436.82647    1157.8951   -388.42618            0   -8.8965602            0            0            0            0            0            0 
10085000    874.13438    60169.366    489.97371   -360.19959    746.32498     386.1254    1153.1857   -360.19959            0   -8.7035908            0            0            0            0            0            0 
10086000    1008.2174    56543.022    495.50748   -382.78728    754.75399    371.96672    1203.3649   -382.78728            0   -9.2617892            0            0            0            0            0            0 
10087000    888.71809    59408.256    481.12292   -366.16007    732.84351    366.68344    1136.6763   -366.16007            0   -8.8150971            0            0            0            0            0            0 
10088000    954.23152    57984.289    502.39813   -375.92245    765.24979    389.32734     1196.265   -375.92245            0   -9.0315765            0            0            0            0            0            0 
10089000    986.03376    57692.413    537.63474   -375.33359    818.92198    443.58839    1273.2221   -375.33359            0   -9.0772688            0            0            0            0            0            0 
10090000    943.39337    59941.316    507.14449   -362.26719    772.47941    410.21222    1234.9103   -362.26719            0   -8.7367041            0            0            0            0            0            0 
10091000    1050.4781    56486.763    472.46088   -380.67028    719.64954    338.97927    1204.3647   -380.67028            0   -9.2710135            0            0            0            0            0            0 
10092000    857.79041    58583.816     488.3648   -371.68391     743.8743    372.19039    1105.0735   -371.68391            0   -8.9391505            0            0            0            0            0            0 
10093000    937.60603    57661.764    500.72802   -387.24876    762.70588    375.45712    1163.9254   -387.24876            0   -9.0820937            0            0            0            0            0            0 
10094000    715.62453    61132.455    526.07222    -387.9925    801.31001    413.31751    1051.3355    -387.9925            0   -8.5664733            0            0            0            0            0            0 
10095000    909.41515    57315.152    502.26863   -391.09907    765.05253    373.95346    1134.1178   -391.09907            0   -9.1370175            0            0            0            0            0            0 
10096000    917.25857    58409.269    502.16726   -377.94137    764.89813    386.95676    1168.3136   -377.94137            0   -8.9658637            0            0            0            0            0            0 
10097000    881.94594    57530.957    473.32118   -388.12262    720.95996    332.83733    1072.8164   -388.12262            0   -9.1027435            0            0            0            0            0            0 
10098000    984.20226    58229.137    542.00484   -375.16803    825.57849    450.41046    1286.2071   -375.16803            0   -8.9935996            0            0            0            0            0            0 
10099000    928.70165    59620.575    517.92951   -372.27021    788.90708    416.63688    1224.1475   -372.27021            0    -8.783705            0            0            0            0            0            0 
10100000    920.10356    57258.559    495.96673    -387.6684    755.45351    367.78512    1136.1244    -387.6684            0   -9.1460482            0            0            0            0            0            0 
10101000    859.61656    60091.246    466.18513   -370.65689    710.09036    339.43347    1092.7749   -370.65689            0   -8.7149058            0            0            0            0            0            0 
10102000    817.54586    58566.905    504.58063   -387.71686    768.57415    380.85728    1079.1545   -387.71686            0   -8.9417316            0            0            0            0            0            0 
10103000    972.09818     55485.54    521.67165   -396.42244    794.60709    398.18465    1184.8062   -396.42244            0   -9.4383067            0            0            0            0            0            0 
10104000    766.99791    64202.383    510.40578   -349.28342    777.44698    428.16357    1146.3236   -349.28342            0   -8.1568553            0            0            0            0            0            0 
10105000    1152.6883    57153.911    487.26288   -364.25239    742.19586    377.94347    1338.7451   -364.25239            0   -9.1627946            0            0            0            0            0            0 
10106000    871.62488    58693.849     526.2986   -391.70266    801.65483    409.95217     1156.054   -391.70266            0   -8.9223922            0            0            0            0            0            0 
10107000    856.92776     59612.11    502.77063    -372.2676    765.81718    393.54957    1138.5467    -372.2676            0   -8.7849523            0            0            0            0            0            0 
10108000    876.57184    56388.755     472.8491   -397.77671    720.24088    322.46417    1043.3324   -397.77671            0   -9.2871272            0            0            0            0            0            0 
10109000    756.87133    58234.377    487.81738   -396.20918    743.04048    346.83131    989.63354   -396.20918            0   -8.9927904            0            0            0            0            0            0 
10110000     784.6646    59979.493    483.31443   -370.02717     736.1816    366.15443    1052.5315   -370.02717            0   -8.7311433            0            0            0            0            0            0 
10111000    826.20967    56502.064    505.23286   -407.51618    769.56763    362.05145    1042.8686   -407.51618            0   -9.2685029            0            0            0            0            0            0 
10112000    792.20374    61314.098    516.79951   -374.13729    787.18588    413.04859    1121.4397   -374.13729            0   -8.5410952            0            0            0            0            0            0 
10113000    849.54266    58210.382    483.38956   -393.06182    736.29605    343.23422    1064.4439   -393.06182            0   -8.9964973            0            0            0            0            0            0 
10114000    890.28899    58160.936    533.05308   -387.59139    811.94322    424.35183    1179.5106   -387.59139            0   -9.0041457            0            0            0            0            0            0 
10115000    935.52743    57430.228    490.28197   -379.80348    746.79452    366.99103    1150.5523   -379.80348            0   -9.1187091            0            0            0            0            0            0 
10116000    830.02563    60080.277    498.59548   -370.75586    759.45761    388.70175    1115.9779   -370.75586            0   -8.7164968            0            0            0            0            0            0 
10117000    969.52215     55682.98    514.03692   -404.49963    782.97792    378.47829     1165.807   -404.49963            0   -9.4048405            0            0            0            0            0            0 
10118000    827.75335    60858.264    479.09482   -368.98115    729.75432    360.77317    1095.4501   -368.98115            0   -8.6050688            0            0            0            0            0            0 
10119000    908.71362    58106.599    490.73645   -373.89669    747.48678    373.59009    1143.6569   -373.89669            0   -9.0125657            0            0            0            0            0            0 
10120000    919.98025    57186.952    506.18113   -383.71705    771.01203    387.29499    1154.5705   -383.71705            0   -9.1575006            0            0            0            0            0            0 
10121000    914.83921    59418.299    508.62083   -366.66422    774.72816    408.06394    1200.8224   -366.66422            0   -8.8136071            0            0            0            0            0            0 
10122000    880.78401    57457.708    517.99239   -392.11024    789.00286    396.89263    1134.9559   -392.11024            0    -9.114348            0            0            0            0            0            0 
10123000    928.65998    57798.981    464.91403   -380.88306    708.15424    327.27117    1110.0747   -380.88306            0   -9.0605325            0            0            0            0            0            0 
10124000    866.52374    58541.908    491.99572   -377.41677    749.40489    371.98813    1111.8033   -377.41677            0   -8.9455497            0            0            0            0            0            0 
10125000    796.40332    59011.558    515.47451   -386.76881    785.16765    398.39884    1083.8019   -386.76881            0   -8.8743555            0            0            0            0            0            0 
10126000    737.50638    60090.444    509.72163   -386.02634     776.4049    390.37856    1036.6978   -386.02634            0    -8.715022            0            0            0            0            0            0 
10127000    942.11015    56341.668    519.03155   -401.64432    790.58572    388.94139    1163.0596   -401.64432            0   -9.2948889            0            0            0            0            0            0 
10128000    882.54966    57950.555    514.42298   -393.18115    783.56596    390.38481    1136.2711   -393.18115            0    -9.036834            0            0            0            0            0            0 
10129000    858.18715    61516.244    488.97085   -353.85179    744.79744    390.94565    1160.8694   -353.85179            0   -8.5130286            0            0            0            0            0            0 
10130000    833.88903    57774.393    498.67065   -394.44621    759.57211    365.12591    1067.7443   -394.44621            0   -9.0643886            0            0            0            0            0            0 
10131000    826.64771    58513.477    489.65032   -386.74675    745.83239    359.08565    1064.5129   -386.74675            0   -8.9498962            0            0            0            0            0            0 
10132000    839.74257    61202.796    507.44765   -362.56058    772.94119    410.38061     1159.918   -362.56058            0   -8.5566278            0            0            0            0            0            0 
10133000    987.35385    56286.733    508.46845   -387.71832    774.49606    386.77774     1197.281   -387.71832            0   -9.3039606            0            0            0            0            0            0 
10134000    934.38642    59632.066    518.79624   -365.73646    790.22728    424.49082     1237.101   -365.73646            0   -8.7820124            0            0            0            0            0            0 
10135000    893.67745    59554.668    509.15421   -369.95466    775.54061    405.58595    1181.7839   -369.95466            0   -8.7934256            0            0            0            0            0            0 
10136000    879.16441    58595.949    491.72774    -380.8606    748.99672    368.13612    1119.4365    -380.8606            0   -8.9372994            0            0            0            0            0            0 
10137000    892.51684    58047.859    535.46096   -389.67278    815.61089    425.93811    1181.5147   -389.67278            0   -9.0216858            0            0            0            0            0            0 
10138000    815.95808    57337.895    521.94345   -402.95809     795.0211    392.06301    1074.3789   -402.95809            0   -9.1333933            0            0            0            0            0            0 
10139000    858.36102    59569.056    516.02198   -378.13878    786.00155    407.86277     1153.567   -378.13878            0   -8.7913018            0            0            0            0            0            0 
10140000    939.35126    58103.127    511.35739   -376.67311    778.89648    402.22337    1198.2057   -376.67311            0   -9.0131043            0            0            0            0            0            0 
10141000    950.31033    58875.259    486.44075   -370.82886     740.9436    370.11474    1186.0847   -370.82886            0   -8.8949001            0            0            0            0            0            0 
10142000    888.89725    57265.169    513.59842   -390.62913       782.31    391.68087    1134.0467   -390.62913            0   -9.1449926            0            0            0            0            0            0 
10143000    790.99281    58896.507    522.01286   -391.29147    795.12682    403.83535    1083.2548   -391.29147            0   -8.8916911            0            0            0            0            0            0 
10144000    867.78974    57003.286    488.30867    -403.0681     743.7888     340.7207    1062.1442    -403.0681            0   -9.1870062            0            0            0            0            0            0 
10145000    883.07582    59103.504    472.43148   -369.99969    719.60477    349.60508    1110.7846   -369.99969            0   -8.8605499            0            0            0            0            0            0 
10146000    909.17494    59045.956    505.34374   -371.94538    769.73651    397.79114    1180.7041   -371.94538            0   -8.8691857            0            0            0            0            0            0 
10147000    980.40622    58715.521    519.03512   -361.32091    790.59114    429.27023    1268.7976   -361.32091            0    -8.919099            0            0            0            0            0            0 
10148000    801.59437    59016.858    492.10369   -385.00404    749.56936    364.56532    1054.4979   -385.00404            0   -8.8735585            0            0            0            0            0            0 
10149000    761.12179    61212.585    503.37115    -379.7724    766.73188    386.95949    1066.4302    -379.7724            0   -8.5552594            0            0            0            0            0            0 
10150000    914.14856    58175.057     489.1413   -372.97231    745.05707    372.08476    1147.6699   -372.97231            0   -9.0019602            0            0            0            0            0            0 
10151000    1014.0037    59150.379    520.61546   -358.88685    792.99831    434.11146    1308.8393   -358.88685            0   -8.8535281            0            0            0            0            0            0 
10152000    915.97201    62068.935    503.53007    -338.1015    766.97395    428.87245    1258.0211    -338.1015            0   -8.4372245            0            0            0            0            0            0 
10153000    977.07005    57804.643    509.89427   -376.66935    776.66786     399.9985    1223.6895   -376.66935            0    -9.059645            0            0            0            0            0            0 
10154000    1045.8954    58592.037    538.31869   -366.07971    819.96376    453.88405    1347.6067   -366.07971            0   -8.9378962            0            0            0            0            0            0 
10155000    999.75568    58538.386    502.67045   -361.51921    765.66458    404.14537    1257.6591   -361.51921            0   -8.9460878            0            0            0            0            0            0 
10156000    749.23265    59341.781    466.82217   -391.67627     711.0607    319.38444     967.7996   -391.67627            0   -8.8249718            0            0            0            0            0            0 
10157000    785.47899    58662.162    497.37104   -394.88887    757.59256    362.70369    1034.7025   -394.88887            0   -8.9272118            0            0            0            0            0            0 
10158000    863.03133    59951.906    493.01069   -368.63787     750.9509    382.31303    1136.8933   -368.63787            0    -8.735161            0            0            0            0            0            0 
10159000    881.90845    60076.276    494.16797   -359.94582    752.71366    392.76784    1165.4527   -359.94582            0   -8.7170773            0            0            0            0            0            0 
10160000    1091.5338     53809.69     519.1669    -406.9224    790.79188    383.86948    1240.4606    -406.9224            0   -9.7322535            0            0            0            0            0            0 
10161000    760.36492    63019.089    484.18024   -358.33922    737.50041    379.16119    1077.9888   -358.33922            0   -8.3100145            0            0            0            0            0            0 
10162000    842.70899     59291.15    479.59458   -377.01321    730.51555    353.50234    1082.1933   -377.01321            0   -8.8325078            0            0            0            0            0            0 
10163000    786.35077    58151.765    497.16081   -389.92012    757.27233    367.35221    1034.2436   -389.92012            0   -9.0055657            0            0            0            0            0            0 
10164000    910.89474    58434.246     520.8084   -377.65178    793.29219    415.64041    1191.9081   -377.65178            0   -8.9620313            0            0            0            0            0            0 
10165000    972.34012    61823.241    502.90136   -337.50383     766.0163    428.51247    1305.2021   -337.50383            0   -8.4707553            0            0            0            0            0            0 
10166000    805.06318    56292.837    468.37773    -405.5182    713.43011    307.91191    968.84728    -405.5182            0   -9.3029518            0            0            0            0            0            0 
10167000    816.01926    58614.938    486.64058   -382.78566    741.24797    358.46231    1056.0272   -382.78566            0   -8.9344041            0            0            0            0            0            0 
10168000     899.9939    59615.808    498.32611   -369.56483    759.04731    389.48248     1171.969   -369.56483            0   -8.7844074            0            0            0            0            0            0 
10169000     891.0596    58972.056    480.41546   -376.93462    731.76592     354.8313    1121.1844   -376.93462            0   -8.8802999            0            0            0            0            0            0 
10170000    969.57328    57511.878    460.17314   -376.66083    700.93294    324.27212    1137.5034   -376.66083            0   -9.1057633            0            0            0            0            0            0 
10171000     773.9616    62078.965    512.80721   -369.71247    781.10484    411.39237    1112.1047   -369.71247            0   -8.4358615            0            0            0            0            0            0 
10172000    879.45308    57168.381    511.36834   -408.46587    778.91315    370.44728    1103.6844   -408.46587            0   -9.1604754            0            0            0            0            0            0 
10173000    825.05053    58952.808    502.90689   -389.52481    766.02473    376.49992    1085.8505   -389.52481            0   -8.8831993            0            0            0            0            0            0 
10174000    1014.9558    60466.617    524.64884   -356.31381    799.14193    442.82813    1337.8604   -356.31381            0   -8.6608045            0            0            0            0            0            0 
10175000    906.57726    57343.651    504.71046   -386.17578    768.77191    382.59613    1140.7652   -386.17578            0   -9.1324765            0            0            0            0            0            0 
10176000    713.50828    59806.608    477.28159   -390.56374    726.99242    336.42867    958.76347   -390.56374            0   -8.7563826            0            0            0            0            0            0 
10177000     962.9405    58457.558    528.44242   -377.43465     804.9203    427.48565    1248.4343   -377.43465            0   -8.9584574            0            0            0            0            0            0 
10178000    721.28339    65609.137    502.19358   -343.95009    764.93822    420.98813    1111.1424   -343.95009            0   -7.9819605            0            0            0            0            0            0 
10179000    924.04139    56797.826    520.42396   -395.19568    792.70661    397.51094    1162.9296   -395.19568            0   -9.2202392            0            0            0            0            0            0 
10180000    792.34665    58636.497    505.34705   -391.35163    769.74156    378.38993    1055.9677   -391.35163            0   -8.9311192            0            0            0            0            0            0 
10181000    917.41717    57682.041    486.36766   -385.52106    740.83227    355.31121    1127.0732   -385.52106            0   -9.0789011            0            0            0            0            0            0 
10182000    757.75537    60756.249     486.7081   -376.71218    741.35083    364.63864    1036.0611   -376.71218            0   -8.6195175            0            0            0            0            0            0 
10183000    923.30779    57904.927    474.41487   -376.01956    722.62585    346.60629    1126.3249   -376.01956            0   -9.0439549            0            0            0            0            0            0 
10184000    870.55186    59274.614     505.4342   -377.78452     769.8743    392.08978    1144.6466   -377.78452            0   -8.8349718            0            0            0            0            0            0 
10185000    1017.8959    56520.026    514.50936    -384.8248    783.69754    398.87274    1237.9107    -384.8248            0   -9.2655574            0            0            0            0            0            0 
10186000    871.06943    60605.507    466.60848   -364.30883    710.73521    346.42638    1116.3378   -364.30883            0   -8.6409565            0            0            0            0            0            0 
10187000    939.83877    58195.603    498.67083   -377.09413    759.57238    382.47826    1180.1412   -377.09413            0    -8.998782            0            0            0            0            0            0 
10188000    788.06211    61507.676    492.97952     -362.365    750.90341    388.53841    1095.4509     -362.365            0   -8.5142144            0            0            0            0            0            0 
10189000    1001.8982    54774.695    511.51762   -409.60874    779.14053    369.53179    1169.8809   -409.60874            0   -9.5607934            0            0            0            0            0            0 
10190000    907.43956    59494.261    526.55598   -371.66603    802.04687    430.38085    1217.7324   -371.66603            0    -8.802354            0            0            0            0            0            0 
10191000    928.43352    58364.637    474.14394   -369.42931    722.21317    352.78386    1143.0557   -369.42931            0     -8.97272            0            0            0            0            0            0 
10192000    841.90482    60871.728    482.67471   -361.63981     735.2072    373.56739    1120.9698   -361.63981            0   -8.6031654            0            0            0            0            0            0 
10193000    923.93523    56847.207    497.16272   -394.28599    757.27524    362.98926    1128.9853   -394.28599            0     -9.21223            0            0            0            0            0            0 
10194000    845.09589    59627.746    502.16977   -375.46569    764.90194    389.43625    1124.3397   -375.46569            0   -8.7826487            0            0            0            0            0            0 
10195000    945.99248    60943.566    500.76065    -358.6836    762.75559    404.07199    1244.8695    -358.6836            0   -8.5930244            0            0            0            0            0            0 
10196000    1080.2557    56757.727    525.33786   -369.87355    800.19144     430.3179     1324.503   -369.87355            0   -9.2267533            0            0            0            0            0            0 
10197000      953.713    59543.822     502.1244   -354.71516    764.83285    410.11768    1238.3083   -354.71516            0   -8.7950275            0            0            0            0            0            0 
10198000    923.51091      58298.8     503.0737   -379.24063    766.27881    387.03817    1172.2332   -379.24063            0    -8.982853            0            0            0            0            0            0 
10199000    825.17484    57237.208    477.10835   -395.09468    726.72855    331.63386    1020.4452   -395.09468            0     -9.14946            0            0            0            0            0            0 
10200000     829.9227    59220.627    483.18514   -378.55416    735.98467    357.43051    1074.2116   -378.55416            0   -8.8430261            0            0            0            0            0            0 
10201000    900.29009    57370.175    503.52998   -391.14616    766.97381    375.82766     1129.087   -391.14616            0   -9.1282543            0            0            0            0            0            0 
10202000    792.21595    58159.022    518.61067   -395.46715    789.94463    394.47748    1066.4269   -395.46715            0   -9.0044421            0            0            0            0            0            0 
10203000    857.05606    58522.363    507.55222   -387.85837    773.10046    385.24209    1116.7297   -387.85837            0   -8.9485372            0            0            0            0            0            0 
10204000    988.98878    59549.408    486.27266   -349.42746    740.68757    391.26011    1250.1643   -349.42746            0   -8.7942023            0            0            0            0            0            0 
10205000    901.71815     61013.89    516.93117    -356.2866    787.38643    431.09982    1233.4712    -356.2866            0   -8.5831201            0            0            0            0            0            0 
10206000    807.49125    57901.864    485.01691   -394.96628    738.77481    343.80853    1025.6859   -394.96628            0   -9.0444333            0            0            0            0            0            0 
10207000    746.85017    61562.528    486.10799   -370.32604    740.43675    370.11071    1040.6524   -370.32604            0   -8.5066284            0            0            0            0            0            0 
10208000    1016.1228    55471.157    527.38653   -399.70978    803.31196    403.60218    1225.6353   -399.70978            0    -9.440754            0            0            0            0            0            0 
10209000    860.60174    60360.927    501.96697   -365.56628    764.59304    399.02676    1156.6164   -365.56628            0   -8.6759692            0            0            0            0            0            0 
10210000    955.38476    58815.067    513.98398   -372.78002    782.89728    410.11726    1229.6056   -372.78002            0   -8.9040032            0            0            0            0            0            0 
10211000    1007.4436    58060.389    528.53861   -379.79149     805.0668    425.27531    1278.3294   -379.79149            0   -9.0197388            0            0            0            0            0            0 
10212000    807.15373    61484.164    455.11402   -353.69774    693.22692    339.52918    1063.2906   -353.69774            0   -8.5174703            0            0            0            0            0            0 
10213000    951.26443    57712.564    491.75343   -380.08365    749.03584    368.95219     1169.611   -380.08365            0   -9.0740995            0            0            0            0            0            0 
10214000    801.88686    60005.371    500.83403   -381.14681    762.86736    381.72055    1083.4652   -381.14681            0   -8.7273779            0            0            0            0            0            0 
10215000    1040.3327    56524.557    468.53364   -375.30041    713.66759    338.36718    1195.9683   -375.30041            0   -9.2648148            0            0            0            0            0            0 
10216000    969.53628     56592.81    494.18599   -386.46223     752.7411    366.27887    1166.4838   -386.46223            0    -9.253641            0            0            0            0            0            0 
10217000    825.29992    60535.693    478.93954   -358.88262     729.5178    370.63518     1099.252   -358.88262            0   -8.6509217            0            0            0            0            0            0 
10218000    838.80583    61187.346    495.88734    -365.1598    755.33258    390.17278    1138.6851    -365.1598            0   -8.5587883            0            0            0            0            0            0 
10219000    1030.3175     57360.54     483.1079   -365.68578    735.86703    370.18125    1232.0878   -365.68578            0   -9.1297876            0            0            0            0            0            0 
10220000    789.64168    58732.809     455.1095   -392.11932    693.22003    301.10071    977.47444   -392.11932            0   -8.9164736            0            0            0            0            0            0 
10221000    948.68759    58088.614    488.41313   -378.18195    743.94792    365.76597    1169.4589   -378.18195            0   -9.0153561            0            0            0            0            0            0 
10222000    944.17905    58439.941    485.64867   -368.84671    739.73711     370.8904    1175.6015   -368.84671            0   -8.9611581            0            0            0            0            0            0 
10223000    787.55359    59679.263    505.25761   -379.56489    769.60532    390.04044    1075.4962   -379.56489            0   -8.7750673            0            0            0            0            0            0 
10224000    1032.4994    57547.158    513.94307   -379.46548    782.83496    403.36949    1269.9114   -379.46548            0   -9.1001808            0            0            0            0            0            0 
10225000    925.71041    57404.493    513.15193   -395.18214    781.62991    386.44777    1161.4392   -395.18214            0   -9.1227972            0            0            0            0            0            0 
10226000    817.93736    59275.673    520.94915   -381.60495    793.50658    411.90163    1118.9879   -381.60495            0    -8.834814            0            0            0            0            0            0 
10227000    854.54485    58459.126    499.26065   -385.92683     760.4708    374.54397    1103.1002   -385.92683            0   -8.9582172            0            0            0            0            0            0 
10228000    991.67994    59133.391    479.71996   -360.68329    730.70654    370.02325    1225.2479   -360.68329            0   -8.8560716            0            0            0            0            0            0 
10229000    808.89972    59703.894     489.6257    -373.4611    745.79489    372.33379     1076.659    -373.4611            0   -8.7714471            0            0            0            0            0            0 
10230000    943.87301    59366.057    496.94863   -372.40749    756.94914    384.54165    1201.7403   -372.40749            0   -8.8213631            0            0            0            0            0            0 
10231000    972.54817    57765.377    510.67075   -381.62828    777.85059     396.2223    1215.5443   -381.62828            0   -9.0658034            0            0            0            0            0            0 
10232000    887.29812    57945.701    478.67968   -381.19726    729.12198    347.92472    1097.7614   -381.19726            0    -9.037591            0            0            0            0            0            0 
10233000    809.19183    59118.191    505.78958   -393.16826    770.41562    377.24736    1074.9149   -393.16826            0   -8.8583487            0            0            0            0            0            0 
10234000    892.24316    57767.756     504.8172   -387.56902     768.9345    381.36547    1133.0656   -387.56902            0   -9.0654299            0            0            0            0            0            0 
10235000    861.37341    60633.886    504.29888   -365.94936      768.145    402.19564    1163.8935   -365.94936            0   -8.6369122            0            0            0            0            0            0 
10236000      1074.54    57619.377    520.63678   -370.13478    793.03079    422.89601    1325.8529   -370.13478            0   -9.0887748            0            0            0            0            0            0 
10237000    975.63898    57162.952    486.79095   -376.26474    741.47703    365.21229    1178.5664   -376.26474            0   -9.1613454            0            0            0            0            0            0 
10238000    836.70782    59282.521    468.93345    -376.6494    714.27659    337.62719    1061.0236    -376.6494            0   -8.8337935            0            0            0            0            0            0 
10239000    815.24999    58325.885    475.92436   -381.47531     724.9251    343.44979    1036.9203   -381.47531            0   -8.9786815            0            0            0            0            0            0 
10240000    987.13374    58516.788    492.60859   -368.24099    750.33842    382.09743    1224.5246   -368.24099            0   -8.9493898            0            0            0            0            0            0 
10241000    882.34665    61649.219    513.36474   -353.17932    781.95405    428.77473    1222.0843   -353.17932            0   -8.4946663            0            0            0            0            0            0 
10242000    1042.1176    56287.036    495.12342   -383.08348    754.16899    371.08551     1226.548   -383.08348            0   -9.3039106            0            0            0            0            0            0 
10243000    930.15044    58666.906    522.99725    -373.7223    796.62624    422.90395    1218.7375    -373.7223            0     -8.92649            0            0            0            0            0            0 
10244000    976.13525    59855.847    522.48077   -366.48769    795.83954    429.35186    1281.4556   -366.48769            0   -8.7491794            0            0            0            0            0            0 
10245000    966.39129    56578.117    498.42054   -388.51697    759.19114    370.67417    1168.0763   -388.51697            0   -9.2560441            0            0            0            0            0            0 
10246000    843.63699    59360.895    484.20244   -370.15508    737.53422    367.37914    1097.7307   -370.15508            0   -8.8221303            0            0            0            0            0            0 
10247000    907.28079    59646.144    505.29229   -370.92785    769.65815     398.7303    1187.9537   -370.92785            0   -8.7799397            0            0            0            0            0            0 
10248000    928.65329    57920.423    494.10145   -383.90641    752.61234    368.70593    1153.1486   -383.90641            0   -9.0415352            0            0            0            0            0            0 
10249000    820.75996    58354.145    505.35624   -384.75463    769.75555    385.00093    1083.4967   -384.75463            0   -8.9743333            0            0            0            0            0            0 
10250000    1030.0139    56982.227    521.18185   -381.30524    793.86104     412.5558    1268.5255   -381.30524            0   -9.1904015            0            0            0            0            0            0 
10251000     757.2199    62513.328    494.91789   -360.43713    753.85593     393.4188    1083.7707   -360.43713            0   -8.3772462            0            0            0            0            0            0 
10252000    949.15596    58473.082    466.88616   -365.34715    711.15817    345.81102    1155.2227   -365.34715            0    -8.956079            0            0            0            0            0            0 
10253000    855.55673    55703.796    469.62996   -407.95595     715.3375    307.38156    1002.4211   -407.95595            0   -9.4013259            0            0            0            0            0            0 
10254000    951.82052    60539.042    527.37079   -366.62064    803.28799    436.66734    1277.0295   -366.62064            0   -8.6504431            0            0            0            0            0            0 
10255000    928.05228    58686.066    518.65481    -382.6005    790.01186    407.41136    1201.7091    -382.6005            0   -8.9235755            0            0            0            0            0            0 
10256000    810.48688    59271.478    541.31249   -391.75498     824.5239    432.76891    1133.3649   -391.75498            0   -8.8354393            0            0            0            0            0            0 
10257000     728.6541    57524.639     492.8935   -412.03333    750.77239    338.73906    950.03456   -412.03333            0   -9.1037433            0            0            0            0            0            0 
10258000    926.16217    58412.774    537.51712   -384.38011    818.74282    434.36271    1223.3514   -384.38011            0   -8.9653258            0            0            0            0            0            0 
10259000    1010.4827    56869.353    519.99937   -383.44264    792.05988    408.61724    1246.6926   -383.44264            0   -9.2086426            0            0            0            0            0            0 
10260000    873.01604    59046.251    481.69257   -376.55789     733.7112    357.15331    1108.9327   -376.55789            0   -8.8691414            0            0            0            0            0            0 
10261000    977.69119    57013.487    486.33397   -380.25814    740.78096    360.52282    1173.4566   -380.25814            0   -9.1853626            0            0            0            0            0            0 
10262000    902.60008    58849.314    504.60769    -374.6574    768.61537    393.95798    1168.6207    -374.6574            0   -8.8988216            0            0            0            0            0            0 
10263000    915.66108     57639.79    509.53765   -382.07699    776.12465    394.04766    1163.7681   -382.07699            0   -9.0855561            0            0            0            0            0            0 
10264000    881.22768    59413.343    497.90592   -366.42975    758.40728    391.97753     1155.546   -366.42975            0   -8.8143423            0            0            0            0            0            0 
10265000    892.99712    57498.787    497.77656   -388.35308    758.21023    369.85715    1118.6896   -388.35308            0   -9.1078364            0            0            0            0            0            0 
10266000    860.00659    58732.974    513.16867   -384.42165    781.65541    397.23376    1133.8812   -384.42165            0   -8.9164487            0            0            0            0            0            0 
10267000    895.06968    55972.961    496.08248   -408.74192    755.62983    346.88791    1077.5407   -408.74192            0   -9.3561165            0            0            0            0            0            0 
10268000    866.87484    57420.749    486.68491   -394.99512    741.31551    346.32039    1072.2611   -394.99512            0   -9.1202144            0            0            0            0            0            0 
10269000    868.44251    60631.795    524.69379   -371.90262    799.21041    427.30778    1195.2303   -371.90262            0     -8.63721            0            0            0            0            0            0 
10270000    819.47922    59213.073     516.5394    -382.4499    786.78968    404.33978    1112.0108    -382.4499            0   -8.8441541            0            0            0            0            0            0 
10271000    930.95565    59067.977    506.93614   -369.70648    772.16205    402.45557    1204.4235   -369.70648            0   -8.8658792            0            0            0            0            0            0 
10272000    819.63701    61550.352    486.34249   -366.73269    740.79392    374.06124    1109.8074   -366.73269            0   -8.5083111            0            0            0            0            0            0 
10273000    837.96564    57853.017    487.13064   -393.55549    741.99444    348.43895    1055.4531   -393.55549            0   -9.0520698            0            0            0            0            0            0 
10274000    763.79976    58533.538    497.70798   -399.97513    758.10577    358.13064    1010.1495   -399.97513            0   -8.9468288            0            0            0            0            0            0 
10275000    743.09672    59061.642    466.89517    -386.1632    711.17189    325.00869    965.07763    -386.1632            0   -8.8668301            0            0            0            0            0            0 
10276000     1056.124      56579.4    483.31692   -375.44559     736.1854    360.73982    1232.2032   -375.44559            0   -9.2558342            0            0            0            0            0            0 
10277000    865.26558    58622.221    480.78489   -381.96194    732.32864     350.3667    1090.1211   -381.96194            0   -8.9332942            0            0            0            0            0            0 
10278000    792.85236    58859.219    521.53519   -396.28615    794.39924    398.11309    1078.6986   -396.28615            0    -8.897324            0            0            0            0            0            0 
10279000    1123.8903    56466.779    501.60865   -369.54478    764.04725    394.50247    1320.0374   -369.54478            0   -9.2742946            0            0            0            0            0            0 
10280000    794.49787     61935.62    480.18315    -351.8684    731.41205    379.54365    1097.1878    -351.8684            0   -8.4553855            0            0            0            0            0            0 
10281000    921.17674    56840.936    476.93009   -385.50989    726.45703    340.94714     1104.572   -385.50989            0   -9.2132463            0            0            0            0            0            0 
10282000    871.03482    58446.432    463.93137    -380.3097    706.65745    326.34775    1068.8015    -380.3097            0   -8.9601628            0            0            0            0            0            0 
10283000    844.20187    60544.073    510.23592   -369.08564    777.18826    408.10262    1153.5102   -369.08564            0   -8.6497244            0            0            0            0            0            0 
10284000    1037.5547    56611.861    500.97122   -377.11657    763.07632    385.95974    1242.5918   -377.11657            0    -9.250527            0            0            0            0            0            0 
10285000    854.96377    60058.286    496.97573   -369.67061    756.99041     387.3198    1136.1727   -369.67061            0   -8.7196885            0            0            0            0            0            0 
10286000    847.90324     59476.19      477.259   -370.04879    726.95802    356.90923    1092.3798   -370.04879            0   -8.8050284            0            0            0            0            0            0 
10287000    1072.1154    55620.504    517.00989   -388.67139    787.50634    398.83494    1268.5006   -388.67139            0   -9.4154046            0            0            0            0            0            0 
10288000    850.66407    58825.692    501.10888   -383.73091    763.28601     379.5551    1109.3503   -383.73091            0   -8.9023949            0            0            0            0            0            0 
10289000    965.26466    59457.151      504.995   -357.15384    769.20532    412.05148    1249.0533   -357.15384            0   -8.8078479            0            0            0            0            0            0 
10290000     941.9812    58607.474     505.4476    -371.5215    769.89472    398.37322    1203.5127    -371.5215            0    -8.935542            0            0            0            0            0            0 
10291000    802.02661    60101.173    455.32864   -367.65846    693.55382    325.89536    1028.8829   -367.65846            0   -8.7134663            0            0            0            0            0            0 
10292000    844.07367    59753.509    484.19013   -375.41182    737.51547    362.10365    1097.6663   -375.41182            0   -8.7641639            0            0            0            0            0            0 
10293000    907.93343    57784.697    494.55198   -381.96439    753.29857    371.33419    1136.4774   -381.96439            0   -9.0627722            0            0            0            0            0            0 
10294000    877.70006    59943.459    499.32387   -360.19891    760.56709    400.36818    1167.6657   -360.19891            0   -8.7363918            0            0            0            0            0            0 
10295000    887.46385     56409.29    481.64047   -399.74988    733.63184    333.88196    1063.9733   -399.74988            0   -9.2837465            0            0            0            0            0            0 
10296000    945.28314    58922.928    475.73621   -357.36831    724.63851    367.27019    1179.5808   -357.36831            0    -8.887704            0            0            0            0            0            0 
10297000    892.74184    60495.149    520.99246   -369.23629    793.57256    424.33627    1211.9664   -369.23629            0   -8.6567197            0            0            0            0            0            0 
10298000    959.60479    56491.063    509.57054   -391.17367    776.17476    385.00109    1175.5851   -391.17367            0   -9.2703078            0            0            0            0            0            0 
10299000    798.31277    61521.254    491.95232   -364.44118    749.33879    384.89761    1101.1633   -364.44118            0   -8.5123353            0            0            0            0            0            0 
10300000    893.76634    58613.499    486.79798   -371.84087    741.48773    369.64686    1133.6542   -371.84087            0   -8.9346235            0            0            0            0            0            0 
10301000    813.90352    58454.006    509.12035   -395.57225    775.48903    379.91678    1073.7628   -395.57225            0   -8.9590018            0            0            0            0            0            0 
10302000     949.2324     58631.09    544.20078   -376.00776    828.92332    452.91556    1264.5798   -376.00776            0   -8.9319429            0            0            0            0            0            0 
10303000    867.79998    59423.499    509.90959   -375.40775     776.6912    401.28344    1153.3456   -375.40775            0    -8.812836            0            0            0            0            0            0 
10304000    835.18153    57759.781    495.06826   -391.89113    754.08497    362.19384    1065.7233   -391.89113            0   -9.0666816            0            0            0            0            0            0 
10305000    932.24847    59556.072    501.37189   -364.42613    763.68662    399.26049    1208.9782   -364.42613            0   -8.7932184            0            0            0            0            0            0 
10306000    941.74789    58246.684    499.62799   -379.02062    761.03033    382.00971    1181.9945   -379.02062            0   -8.9908903            0            0            0            0            0            0 
10307000    758.60226    60701.664    493.04255    -376.3584    750.99942    374.64101      1046.21    -376.3584            0   -8.6272683            0            0            0            0            0            0 
10308000    842.28965    59617.423    487.66647   -370.45618    742.81062    372.35444    1104.6907   -370.45618            0   -8.7841695            0            0            0            0            0            0 
10309000    823.74443    58566.928     462.4776   -379.48057    704.44308    324.96251    1028.5544   -379.48057            0   -8.9417281            0            0            0            0            0            0 
10310000    758.24219    58111.289    476.30316   -402.36736    725.50208    323.13472    965.74008   -402.36736            0   -9.0118384            0            0            0            0            0            0 
10311000    745.97709    58317.847    470.91584   -404.25531    717.29616    313.04085    947.49883   -404.25531            0    -8.979919            0            0            0            0            0            0 
10312000    878.10119     60694.46    492.38384    -367.8985    749.99608    382.09758    1159.3633    -367.8985            0   -8.6282923            0            0            0            0            0            0 
10313000    704.99209    58722.173    450.90682   -394.54174    686.81853    292.27679    896.03389   -394.54174            0   -8.9180887            0            0            0            0            0            0 
10314000    822.70888    58410.753    475.40864   -386.01438    724.13956    338.12518    1038.9587   -386.01438            0    -8.965636            0            0            0            0            0            0 
10315000    717.91163    61316.772    511.34151   -381.32236    778.87228    397.54992    1039.5368   -381.32236            0   -8.5407226            0            0            0            0            0            0 
10316000    897.22023    59407.879    526.65927   -379.92315    802.20421    422.28106    1199.6353   -379.92315            0   -8.8151531            0            0            0            0            0            0 
10317000    1086.2135    56270.119    520.40605   -377.46167    792.67934    415.21767    1306.6101   -377.46167            0   -9.3067077            0            0            0            0            0            0 
10318000    773.83376    61153.753     471.5472   -349.76275    718.25783    368.49509    1058.6502   -349.76275            0   -8.5634899            0            0            0            0            0            0 
10319000     753.1054    59759.292    480.09063   -380.56857    731.27114    350.70257     1007.055   -380.56857            0   -8.7633158            0            0            0            0            0            0 
10320000    825.61976     57546.48    497.79423   -391.59178    758.23716    366.64538     1059.552   -391.59178            0   -9.1002881            0            0            0            0            0            0 
10321000    795.18875     62522.44    496.13404   -349.99463    755.70836    405.71372    1130.7872   -349.99463            0   -8.3760254            0            0            0            0            0            0 
10322000    1092.9295    56942.348    507.97459   -369.11868    773.74382    404.62514    1312.2438   -369.11868            0    -9.196838            0            0            0            0            0            0 
10323000    928.66968    56823.767    526.52954   -393.89942     802.0066    408.10718    1177.7109   -393.89942            0   -9.2160301            0            0            0            0            0            0 
10324000    819.53832    60172.803    479.95355   -371.93177    731.06234    359.13058    1078.3235   -371.93177            0   -8.7030938            0            0            0            0            0            0 
10325000    770.81457    57903.777    484.45143   -400.85771    737.91347    337.05577    987.98338   -400.85771            0   -9.0441344            0            0            0            0            0            0 
10326000    866.10231     56207.91    472.15123   -400.24335    719.17788    318.93454    1028.9087   -400.24335            0    -9.317008            0            0            0            0            0            0 
10327000     897.7709    59449.458    529.73794   -371.29138    806.89361    435.60224     1213.978   -371.29138            0   -8.8089877            0            0            0            0            0            0 
10328000     902.9608     59299.07    507.35307   -373.81034    772.79712    398.98679    1179.8818   -373.81034            0   -8.8313282            0            0            0            0            0            0 
10329000    1074.1133    55914.013    518.30079   -389.82109    789.47263    399.65153    1275.5357   -389.82109            0   -9.3659803            0            0            0            0            0            0 
10330000    727.39992    60698.461    482.65476   -376.02038     735.1768    359.15642    1003.0689   -376.02038            0   -8.6277236            0            0            0            0            0            0 
10331000    818.00867      59100.9    480.10255   -388.26467    731.28929    343.02463    1048.0876   -388.26467            0   -8.8609403            0            0            0            0            0            0 
10332000    823.55665    58819.383    478.29973   -380.56562    728.54324    347.97762    1054.4413   -380.56562            0   -8.9033499            0            0            0            0            0            0 
10333000    926.81754    57706.984    496.50653   -383.53658    756.27573    372.73915    1152.7462   -383.53658            0   -9.0749769            0            0            0            0            0            0 
10334000    921.76727    58695.824     491.8282   -366.30527    749.14973    382.84446    1171.8942   -366.30527            0   -8.9220921            0            0            0            0            0            0 
10335000    869.76193    59025.175    506.68916   -375.17535    771.78586     396.6105    1145.3204   -375.17535            0   -8.8723082            0            0            0            0            0            0 
10336000    797.35945    60398.283    492.98235   -369.55744    750.90772    381.35028     1083.702   -369.55744            0   -8.6706032            0            0            0            0            0            0 
10337000    943.80399     59205.79    492.67463   -363.63854    750.43901    386.80047    1201.7334   -363.63854            0   -8.8452421            0            0            0            0            0            0 
10338000    906.70866    57602.987    498.20464    -387.8632    758.86229    370.99908    1132.7073    -387.8632            0   -9.0913609            0            0            0            0            0            0 
10339000     901.9247    58182.781    480.35343   -380.16587    731.67143    351.50556    1116.8213   -380.16587            0    -9.000765            0            0            0            0            0            0 
10340000    731.03222    61331.136    500.39226   -385.82899    762.19445    376.36546    1030.2385   -385.82899            0   -8.5387223            0            0            0            0            0            0 
10341000    996.45092    57830.132    495.49719   -372.70857    754.73831    382.02974    1222.4296   -372.70857            0   -9.0556519            0            0            0            0            0            0 
10342000    918.42762    57460.734    510.91996   -384.36943    778.23018    393.86075    1163.5085   -384.36943            0   -9.1138681            0            0            0            0            0            0 
10343000    790.64478    59721.366    534.90424   -385.08144     814.7629    429.68146    1118.3132   -385.08144            0   -8.7688809            0            0            0            0            0            0 
10344000    1018.1813     57167.18    489.03856   -379.92497    744.90056    364.97559    1213.8585   -379.92497            0   -9.1606678            0            0            0            0            0            0 
10345000    722.00233    58938.919    499.56792   -399.41963    760.93883    361.51921    982.12618   -399.41963            0   -8.8852927            0            0            0            0            0            0 
10346000    930.83391    57243.372     518.1434   -387.37236    789.23288    401.86052     1178.954   -387.37236            0   -9.1484748            0            0            0            0            0            0 
10347000    846.34865    59528.744     489.7202   -373.95681    745.93885    371.98204    1106.7529   -373.95681            0    -8.797255            0            0            0            0            0            0 
10348000    879.19921    58986.907     485.7381   -377.45037    739.87334    362.42297     1118.766   -377.45037            0   -8.8780642            0            0            0            0            0            0 
10349000    998.53879    58138.046    533.21435   -374.42821    812.18886    437.76065    1284.4055   -374.42821            0   -9.0076909            0            0            0            0            0            0 
10350000    1039.8018    60446.035    518.71403   -341.45125    790.10206    448.65081    1365.2812   -341.45125            0   -8.6637534            0            0            0            0            0            0 
10351000    781.19061    58145.522    493.17305   -393.11414     751.1982    358.08407    1020.5281   -393.11414            0   -9.0065327            0            0            0            0            0            0 
10352000    813.35777    61571.889    491.87706   -353.13565    749.22416    396.08851    1126.4536   -353.13565            0    -8.505335            0            0            0            0            0            0 
10353000    1283.1214    54662.037    483.38266   -368.68351    736.28554    367.60203    1390.4933   -368.68351            0   -9.5804981            0            0            0            0            0            0 
[...]
14939000    916.99637    58693.872     496.9358   -373.51403     756.9296    383.41558    1168.3552   -373.51403            0   -8.9223888            0            0            0            0            0            0 
14940000    833.97872    58281.332    478.51761   -386.25798    728.87512    342.61714    1051.4769   -386.25798            0   -8.9855453            0            0            0            0            0            0 
14941000    908.84702    58347.937     472.3175   -375.01713    719.43115    344.41402    1117.7927   -375.01713            0   -8.9752881            0            0            0            0            0            0 
14942000    884.46171    58433.698    504.66701   -384.36189    768.70572    384.34383    1138.0782   -384.36189            0   -8.9621153            0            0            0            0            0            0 
14943000    922.49925    57824.252    512.51711   -385.95968    780.66295    394.70328    1172.6537   -385.95968            0   -9.0565728            0            0            0            0            0            0 
14944000    1017.5504    57235.776    503.59963   -380.99319    767.07991    386.08671    1235.4615   -380.99319            0    -9.149689            0            0            0            0            0            0 
14945000    812.83076     58316.51    496.48181   -389.48264    756.23809    366.75545     1058.057   -389.48264            0    -8.980125            0            0            0            0            0            0 
14946000    959.23164    58151.309    548.74838   -390.25877    835.85021    445.59144    1259.0939   -390.25877            0   -9.0056364            0            0            0            0            0            0 
14947000    869.87775    60433.912    521.06741   -369.95083    793.68672    423.73588    1190.4171   -369.95083            0   -8.6654913            0            0            0            0            0            0 
14948000    1124.4512    56313.054    507.98863   -374.20723     773.7652    399.55797    1323.0339   -374.20723            0   -9.2996118            0            0            0            0            0            0 
14949000    988.51403     60298.39    501.77682   -352.74738    764.30341    411.55602    1280.8455   -352.74738            0   -8.6849674            0            0            0            0            0            0 
14950000    879.17903    56547.655    502.49825   -409.66908    765.40229    355.73321     1080.783   -409.66908            0   -9.2610302            0            0            0            0            0            0 
14951000    847.95029    59547.681    511.45333   -374.12244    779.04261    404.92017    1141.3157   -374.12244            0   -8.7944575            0            0            0            0            0            0 
14952000    957.14011    57817.799     508.9569   -374.19068    775.24006    401.04938    1208.1226   -374.19068            0   -9.0575836            0            0            0            0            0            0 
14953000    837.62763    59199.162    499.35673   -377.37227    760.61715    383.24488    1106.4183   -377.37227            0   -8.8462324            0            0            0            0            0            0 
14954000    900.36419    58087.865    500.80668    -379.4448     762.8257    383.38089    1146.1261    -379.4448            0   -9.0154725            0            0            0            0            0            0 
14955000    781.18376    60611.801    475.10599   -366.37422    723.67857    357.30435    1047.8403   -366.37422            0   -8.6400591            0            0            0            0            0            0 
14956000    867.66961    58435.526    487.86887   -382.77049    743.11891    360.34842    1099.7957   -382.77049            0    -8.961835            0            0            0            0            0            0 
14957000    840.13436     59149.21    490.57651   -384.64182    747.24317    362.60135    1087.3269   -384.64182            0   -8.8537032            0            0            0            0            0            0 
14958000     950.4653    59107.217    512.82859   -371.33224     781.1374    409.80517    1229.1235   -371.33224            0   -8.8599933            0            0            0            0            0            0 
14959000    786.34812    59181.402    501.94086   -390.27059    764.55327    374.28269    1052.9798   -390.27059            0   -8.8488871            0            0            0            0            0            0 
14960000    824.12687    61090.579    484.80271   -367.16214    738.44855    371.28641    1105.5368   -367.16214            0   -8.5723454            0            0            0            0            0            0 
14961000    951.49754    56282.457    528.35525   -400.51926    804.78751    404.26825    1185.2783   -400.51926            0   -9.3046674            0            0            0            0            0            0 
14962000    1044.3792    57121.039    481.48414    -373.8798    733.39372    359.51391    1229.5359    -373.8798            0   -9.1680676            0            0            0            0            0            0 
14963000    924.80132    60015.089    511.54887   -363.85632    779.18813    415.33181     1224.772   -363.85632            0   -8.7259647            0            0            0            0            0            0 
14964000    1134.0745    55668.823    510.30332   -380.84492    777.29093    396.44601    1317.1701   -380.84492            0   -9.4072322            0            0            0            0            0            0 
14965000    863.58637    59659.681    491.57587   -359.77593    748.76538    388.98945    1140.3746   -359.77593            0   -8.7779475            0            0            0            0            0            0 
14966000    765.34694    57124.854    481.75197   -406.71272    733.80168    327.08895    964.70516   -406.71272            0   -9.1674552            0            0            0            0            0            0 
14967000    820.69035    60823.503    513.01561   -374.09645    781.42226    407.32582    1135.3179   -374.09645            0   -8.6099866            0            0            0            0            0            0 
14968000    958.84326    57290.277    549.56983   -391.32247    837.10144    445.77897    1246.9116   -391.32247            0   -9.1409846            0            0            0            0            0            0 
14969000    859.63154    58847.547    505.10524   -384.69788    769.37324    384.67536    1122.4379   -384.69788            0   -8.8990888            0            0            0            0            0            0 
14970000    895.03078    58429.628      492.188   -380.75911    749.69777    368.93866    1131.6268   -380.75911            0   -8.9627397            0            0            0            0            0            0 
14971000    862.54279    60490.635    510.02707   -367.27578    776.87014    409.59436    1170.5243   -367.27578            0   -8.6573657            0            0            0            0            0            0 
14972000    1021.3573    58185.976    526.10826   -369.85566    801.36492    431.50925    1298.2155   -369.85566            0   -9.0002708            0            0            0            0            0            0 
14973000    912.91028    60122.098    525.10343   -364.46366    799.83435     435.3707    1235.8279   -364.46366            0   -8.7104336            0            0            0            0            0            0 
14974000    903.43895    58659.288    488.65156   -372.12268     744.3111    372.18842    1145.0674   -372.12268            0   -8.9276492            0            0            0            0            0            0 
14975000    843.44432    61816.158    539.33244    -364.0356    821.50791    457.47231    1217.8587    -364.0356            0   -8.4717259            0            0            0            0            0            0 
14976000    967.45449    55333.964     482.1579   -405.60274    734.41999    328.81725    1109.5425   -405.60274            0   -9.4641611            0            0            0            0            0            0 
14977000    889.69994    59844.121    496.64654   -370.67346      756.489    385.81554    1162.3146   -370.67346            0   -8.7508938            0            0            0            0            0            0 
14978000    917.28265    57076.711    514.91914   -391.42498    784.32171    392.89673    1156.4477   -391.42498            0   -9.1751878            0            0            0            0            0            0 
14979000    840.08669    58833.238    499.50505   -385.56091    760.84306    375.28215    1096.0954   -385.56091            0   -8.9012532            0            0            0            0            0            0 
14980000    901.29138     59717.59    505.07339   -367.15296    769.32472    402.17176    1187.1243   -367.15296            0   -8.7694354            0            0            0            0            0            0 
14981000    892.72298    57784.373    504.09061   -388.21889    767.82777    379.60888    1131.9296   -388.21889            0    -9.062823            0            0            0            0            0            0 
14982000    890.96235    60357.324     482.6548   -364.38658    735.17686    370.79028    1155.0596   -364.38658            0   -8.6764871            0            0            0            0            0            0 
14983000    1053.6329    56224.823    502.13913   -396.28127    764.85528    368.57401    1232.5333   -396.28127            0   -9.3142053            0            0            0            0            0            0 
14984000    795.53479    59981.634    479.87974    -380.1935     730.9499     350.7564    1046.6668    -380.1935            0   -8.7308316            0            0            0            0            0            0 
14985000    982.23272    56574.211    529.38729   -396.89048    806.35951    409.46903    1219.8865   -396.89048            0   -9.2566831            0            0            0            0            0            0 
14986000    863.10579    58845.385     526.4409   -384.27695    801.87159    417.59464    1158.3117   -384.27695            0   -8.8994158            0            0            0            0            0            0 
14987000      823.016    58836.582    500.11479   -387.28385    761.77182    374.48797    1080.6943   -387.28385            0   -8.9007473            0            0            0            0            0            0 
14988000    814.91946     58708.52    491.44171   -385.45043    748.56102    363.11059    1060.8475   -385.45043            0   -8.9201627            0            0            0            0            0            0 
14989000    801.10613    60194.825    527.61409   -375.05691    803.65859    428.60167    1131.8766   -375.05691            0   -8.6999097            0            0            0            0            0            0 
14990000    917.33884    57566.839    498.91962   -380.27856    759.95134    379.67278    1149.8276   -380.27856            0   -9.0970696            0            0            0            0            0            0 
14991000    858.43462    58705.406    511.41343   -393.17078    778.98183    385.81105    1120.7668   -393.17078            0   -8.9206358            0            0            0            0            0            0 
14992000    948.63639    58492.889    524.23632   -377.63974    798.51359    420.87385    1230.1165   -377.63974            0   -8.9530463            0            0            0            0            0            0 
14993000    1125.5945    56480.439      520.356   -372.88308     792.6031    419.72002    1346.8826   -372.88308            0   -9.2720516            0            0            0            0            0            0 
14994000    861.45887    58528.084    505.50597   -381.73829    769.98362    388.24533    1123.5626   -381.73829            0   -8.9476626            0            0            0            0            0            0 
14995000     737.0704    58158.687    490.00111    -399.8358    746.36672    346.53093    971.70284    -399.8358            0   -9.0044939            0            0            0            0            0            0 
14996000      911.405     55932.46    504.97167   -402.64976    769.16978    366.52003    1109.9691   -402.64976            0   -9.3628913            0            0            0            0            0            0 
14997000    863.05225     59187.39    506.01241   -372.42256    770.75504    398.33248    1143.3083   -372.42256            0   -8.8479918            0            0            0            0            0            0 
14998000    730.47364    57559.084    480.66893   -403.40991      732.152    328.74209    941.93103   -403.40991            0   -9.0982953            0            0            0            0            0            0 
14999000    629.75995    62571.125    478.49878   -368.99374    728.84644     359.8527    934.53111   -368.99374            0   -8.3695083            0            0            0            0            0            0 
15000000    901.50663    57530.171    487.18019   -388.84711    742.06991    353.22281    1109.6036   -388.84711            0   -9.1028678            0            0            0            0            0            0 
Loop time of 1496.09 on 8 procs for 5000000 steps with 512 atoms

Pair  time (%) = 799.203 (53.4193)
Bond  time (%) = 0.477025 (0.0318847)
Neigh time (%) = 37.7422 (2.52271)
Comm  time (%) = 499.88 (33.4124)
Outpt time (%) = 0.257281 (0.0171969)
Other time (%) = 158.534 (10.5965)

Nlocal:    64 ave 70 max 55 min
Histogram: 1 0 0 0 1 1 2 1 1 1
Nghost:    1291.25 ave 1311 max 1266 min
Histogram: 1 0 0 2 1 0 1 0 2 1
Neighs:    5749.5 ave 6379 max 4820 min
Histogram: 1 0 0 1 1 1 0 1 2 1

Total # of neighbors = 45996
Ave neighs/atom = 89.8359
Ave special neighs/atom = 0
Neighbor list builds = 103138
Dangerous builds = 0

Averages
Group Pressure(MPa) Volume(m3) Temperature(K) PE(J) KE(J) ET(J) ET^2(J) H(J) H^2(J^2) V^2(m6) V*H(m3*J) Hconf(J) Uext*Hconf(J^2) V*Hconf(m3*J) Uext(J)
Block1 89.772911959410663485 5.8741255099886470201e-26 498.53533663946490151 -2.6342578019050104448e-18 5.2758432540345468175e-18 2.6415854521295321357e-18 7.0217742982770289441e-36 7.9075017746045400662e-18 6.2870676161094831732e-35 3.4530699057255451157e-51 4.6438335734060225307e-43 2.6316585205699951746e-18 -6.9038023756483728564e-36 1.544811588331282809e-43 -2.6342578019050104448e-18
Block2 89.825337779291999141 5.8700164465634523068e-26 499.79370128188503486 -2.638240330243300234e-18 5.2891601327428484693e-18 2.6509198024995451538e-18 7.0722146848103435815e-36 7.917048636097061855e-18 6.3012856857925118274e-35 3.4480606687320898493e-51 4.6466089000973210643e-43 2.6278885033541956672e-18 -6.9041027541507444963e-36 1.5417950659010638938e-43 -2.638240330243300234e-18
Block3 89.491820702831560652 5.8689496369892471387e-26 500.35079662769948072 -2.6440581506937149489e-18 5.295055698224483512e-18 2.6509975475307597038e-18 7.0724657826387670229e-36 7.8957830899691900964e-18 6.2698455440757696105e-35 3.4469293500438636929e-51 4.6328380555963859397e-43 2.6007273917447293104e-18 -6.8455448617443864971e-36 1.5252232511889333363e-43 -2.6440581506937149489e-18
Block4 89.711836213704756915 5.8684245779228884634e-26 500.32373749392331774 -2.6411040362008671176e-18 5.2947693398905874095e-18 2.6536653036897168253e-18 7.0876664291650069058e-36 7.9112740025958600702e-18 6.2923959074765571195e-35 3.4463172794895463831e-51 4.6418636621189684468e-43 2.6165046627052842163e-18 -6.8810715601825357785e-36 1.5345926543533558072e-43 -2.6411040362008671176e-18
Block5 89.929608985162502677 5.8730277926118936657e-26 500.24927843449029297 -2.6364684942629945846e-18 5.2939813629959861787e-18 2.6575128687329904385e-18 7.1077330268272958105e-36 7.9321055290159934863e-18 6.3250656087806674278e-35 3.4517068744327786984e-51 4.6577283776567333321e-43 2.638124166020014241e-18 -6.9276345985987577584e-36 1.5485197947868849831e-43 -2.6364684942629945846e-18
Ave_blocks 89.746303128080313627 5.8709087928152266373e-26 499.8505700954926283 -2.638825762661177389e-18 5.2897619575776900152e-18 2.6509361949165087744e-18 7.0723708443436881857e-36 7.9127426064565291148e-18 6.2951320724469976179e-35 3.4492168156847647479e-51 4.6445745137750865813e-43 2.6229806488788437219e-18 -6.8924312300649597446e-36 1.5389884709123039667e-43 -2.638825762661177389e-18
Stdev_blocks 0.14594849515127919504 2.2646556703787179446e-29 0.68791793345767782153 3.44482585137613996e-21 7.2800199340484976761e-21 5.2562552583983516053e-21 2.8441106652116822885e-38 1.1922356953167271191e-20 1.8142845016585919618e-37 2.6841453169597722437e-54 8.0349862804781705008e-46 1.3159517119114919133e-20 2.7684574104077288039e-38 8.2636103969257869946e-46 3.44482585137613996e-21






Properties
Group rho(kg/m3) Cp(J/K) Cp_conf(J/K) Cp_id(J/K) Cp2(J/K) kT(1/Pa) aP(1/K) aP2(1/K) Cv(J/K) uJT(K/Pa) sos(m/s) Cv2(J/K) uJT2(K/Pa) sos2(m/s) CvNVT(J/K)
Block1 232.19173878711723091 9.9693675679676622768e-20 -1.4824100483329008e-21 3.9464510835079737415e-20 3.798210078674683812e-20 6.2694686629480213375e-09 -0.00056170846509267927712 -0.0005247184636837826403 9.8219903444875181666e-20 -7.5421692966452531607e-07 835.016972469277448 3.6696041098822886941e-20 -1.9511143240221631674e-06 843.22045712227918557 1.2764532694551800858e-20
Block2 232.35427505769973777 9.6613382037769084832e-20 -7.2057049235873548014e-22 3.9529107819367568941e-20 3.880853732700883346e-20 5.8050490108422091011e-09 -0.0003515399078837453924 -0.00038519739007952878262 9.5988823031934617944e-20 -7.1432788240652659199e-07 863.83347610839336994 3.8058658869050998698e-20 -1.8037545269794811552e-06 869.47804082036316231 1.3001397388476393638e-20
Block3 232.39651051388372593 1.0272478810211784268e-19 -1.0477343061444313867e-21 3.9557707390249817582e-20 3.8509973084105384691e-20 6.0981000511702379303e-09 -0.00057048409344741669684 -0.00055731362665390328341 1.0115757695449250313e-19 -7.3440846167824596134e-07 846.4987943234427803 3.7014289398064404088e-20 -1.9489808070303418204e-06 856.82045378693010207 1.2925853489325913893e-20
Block4 232.41730347001958989 9.7133589429312842501e-20 -8.5827721990076998547e-22 3.9556318236448580022e-20 3.8698041016547808531e-20 6.1093632367478464084e-09 -0.00039829648396674842761 -0.00043554900574623538331 9.6371177586900147271e-20 -7.2455550674230079196e-07 842.51750563108532788 3.7786343563270927918e-20 -1.8469268996415130116e-06 849.26818136382587454 1.3230802384890890894e-20
Block5 232.23513733985791418 9.6194430715586733069e-20 -1.2855427170375275734e-21 3.9552495689907989276e-20 3.8266952972870461703e-20 6.0678934917655296027e-09 -0.00040373420347628898031 -0.00042276417362140648361 9.5405204205634610383e-20 -7.33846015162833634e-07 845.87461613235348068 3.7401572818840361411e-20 -1.8593326736027143096e-06 852.08725460449920774 1.3128084617288541236e-20
Ave_blocks 232.31899303371559995 9.8471973192892622762e-20 -1.0789069567548730075e-21 3.9532027994210744666e-20 3.845312103745586169e-20 6.0699748906947700341e-09 -0.00045715263077337580907 -0.00046510853195697135802 9.7428537044767404857e-20 -7.3227095913088656495e-07 846.74827293291059505 3.7391381149609915811e-20 -1.8820218462552425658e-06 854.1748775395795974 1.3010134114906708104e-20
Stdev_blocks 0.0896037315115686267 2.4499723890196232165e-21 2.7697195489324642065e-22 3.531421247683643831e-23 2.9868288035831787739e-22 1.4988681440444052048e-10 9.0826829241169099649e-05 6.4973416590719551707e-05 2.0888590506467262412e-21 1.3192100281637368431e-08 9.4683946459735359724 4.9538968671164273938e-22 5.8531188288201415316e-08 8.8274463310525490556 1.6131113929750484701e-22






