LAMMPS (28 Oct 2012)
Scanning data file ...
Reading data file ...
  orthogonal box = (0 0 0) to (100 100 100)
  2 by 2 by 2 MPI processor grid
  512 atoms
Finding 1-2 1-3 1-4 neighbors ...
  0 = max # of 1-2 neighbors
  0 = max # of 1-3 neighbors
  0 = max # of 1-4 neighbors
  1 = max # of special neighbors
WARNING: Resetting reneighboring criteria during minimization (min.cpp:173)
Setting up minimization ...
Memory usage per processor = 4.05499 Mbytes
Step Temp E_pair E_mol TotEng Press 
       0       340.15    1409.7233            0    1927.8378    436.20065 
     701       340.15   -217.27527            0    300.83915    23.455756 
Loop time of 0.0564662 on 8 procs for 701 steps with 512 atoms

Minimization stats:
  Stopping criterion = energy tolerance
  Energy initial, next-to-last, final = 
         1409.72334813     -217.256630745     -217.275265106
  Force two-norm initial, final = 5034.49 0.337455
  Force max component initial, final = 2457.89 0.147661
  Final line search alpha, max atom move = 0.254892 0.0376377
  Iterations, force evaluations = 701 710

Pair  time (%) = 0.00897032 (15.8862)
Bond  time (%) = 6.1214e-05 (0.108408)
Neigh time (%) = 0.00315332 (5.58444)
Comm  time (%) = 0.0230145 (40.758)
Outpt time (%) = 0 (0)
Other time (%) = 0.0212669 (37.663)

Nlocal:    64 ave 74 max 52 min
Histogram: 1 0 0 1 1 2 0 2 0 1
Nghost:    235.125 ave 266 max 224 min
Histogram: 4 0 2 0 0 1 0 0 0 1
Neighs:    316.25 ave 371 max 226 min
Histogram: 1 0 0 1 1 1 0 1 0 3

Total # of neighbors = 2530
Ave neighs/atom = 4.94141
Ave special neighs/atom = 0
Neighbor list builds = 60
Dangerous builds = 0
Setting up run ...
Memory usage per processor = 3.36354 Mbytes
Step Temp E_pair E_mol TotEng Press Volume 
     701       340.15   -217.27527            0    300.83915    23.455756      1000000 
 5000701    332.99887   -533.00337            0   -25.781514    693.77766    46538.674 
Loop time of 1808.14 on 8 procs for 5000000 steps with 512 atoms

Pair  time (%) = 1037.37 (57.3723)
Bond  time (%) = 0.463824 (0.025652)
Neigh time (%) = 35.7533 (1.97735)
Comm  time (%) = 568.001 (31.4136)
Outpt time (%) = 4.81009e-05 (2.66024e-06)
Other time (%) = 166.551 (9.21117)

Nlocal:    64 ave 69 max 59 min
Histogram: 1 0 2 0 1 0 1 1 0 2
Nghost:    1475.62 ave 1513 max 1442 min
Histogram: 1 2 1 0 0 0 1 1 1 1
Neighs:    7189.38 ave 7784 max 6274 min
Histogram: 1 0 0 1 2 0 0 0 3 1

Total # of neighbors = 57515
Ave neighs/atom = 112.334
Ave special neighs/atom = 0
Neighbor list builds = 84935
Dangerous builds = 16
Setting up run ...
Memory usage per processor = 3.96756 Mbytes
Step Press Volume Temp PotEng KinEng TotEng Enthalpy E_vdwl E_coul E_tail E_long E_bond E_angle E_dihed E_impro E_mol 
10000000    693.77766    46538.674    332.99887   -533.00337    507.22186   -25.781514    445.09844   -533.00337            0   -11.252782            0            0            0            0            0            0 
10001000    949.82975    43286.485    321.82013   -561.88567    490.19447   -71.691199    527.92585   -561.88567            0   -12.098223            0            0            0            0            0            0 
10002000    984.48175    43580.319    335.66723   -544.88467    511.28629    -33.59838    592.11286   -544.88467            0   -12.016652            0            0            0            0            0            0 
10003000    997.92083    43966.981     330.4426   -535.98212    503.32817   -32.653955    607.22617   -535.98212            0   -11.910973            0            0            0            0            0            0 
10004000    884.95398    45680.755    350.42332   -523.51452    533.76267    10.248155    599.81066   -523.51452            0   -11.464118            0            0            0            0            0            0 
10005000    883.54182    44764.655    362.04333   -547.32467     551.4622    4.1375291    580.95478   -547.32467            0   -11.698728            0            0            0            0            0            0 
10006000    813.82701     43652.28    343.19739   -569.36331    522.75618   -46.607129    471.49446   -569.36331            0   -11.996843            0            0            0            0            0            0 
10007000    904.19527    45919.371    348.59128   -522.03925    530.97213    8.9328738    614.46062   -522.03925            0   -11.404545            0            0            0            0            0            0 
10008000    931.56228    44124.548    333.05984   -544.97307    507.31472   -37.658343    561.81248   -544.97307            0    -11.86844            0            0            0            0            0            0 
10009000    944.95305    44998.441    345.75502   -529.69425    526.65195   -3.0422968    617.08891   -529.69425            0   -11.637949            0            0            0            0            0            0 
10010000    894.99619    46073.828     341.3453   -522.43092    519.93509   -2.4958326    598.88748   -522.43092            0   -11.366313            0            0            0            0            0            0 
10011000     974.6882    43171.655    340.42414   -560.10085    518.53198   -41.568873    572.10876   -560.10085            0   -12.130402            0            0            0            0            0            0 
10012000    854.49124    44277.511    343.76054    -551.7185    523.61397   -28.104524    523.67642    -551.7185            0   -11.827439            0            0            0            0            0            0 
10013000    865.37028    44316.502    343.65256   -546.33603     523.4495   -22.886531    536.41156   -546.33603            0   -11.817032            0            0            0            0            0            0 
10014000    742.76274    43503.421    331.85841   -575.65567    505.48471   -70.170959    401.07692   -575.65567            0   -12.037893            0            0            0            0            0            0 
10015000    818.01278    45495.119    331.51665   -531.73647    504.96415   -26.772322    515.97886   -531.73647            0   -11.510895            0            0            0            0            0            0 
10016000    1068.3844    43484.364    356.40635    -547.1615    542.87599   -4.2855086    673.25702    -547.1615            0   -12.043169            0            0            0            0            0            0 
10017000    1123.8765    44255.629    355.42121   -523.63224    541.37543    17.743187    743.11888   -523.63224            0   -11.833287            0            0            0            0            0            0 
10018000    891.28602    44512.973    349.24646    -540.4999    531.97009   -8.5298111    570.07172    -540.4999            0   -11.764875            0            0            0            0            0            0 
10019000    833.20907    44093.995    322.01552   -550.04317    490.49209   -59.551074    476.25709   -550.04317            0   -11.876664            0            0            0            0            0            0 
10020000    634.08314    45155.784    346.62811   -558.46843    527.98184   -30.486587    387.08937   -558.46843            0   -11.597397            0            0            0            0            0            0 
10021000    696.74466    44715.192    336.26848   -556.23698    512.20211   -44.034873    410.32989   -556.23698            0   -11.711669            0            0            0            0            0            0 
10022000    939.95304     44464.48     341.3803   -543.15571    519.98841   -23.167307    586.36295   -543.15571            0   -11.777705            0            0            0            0            0            0 
10023000    1069.1191     45663.22    350.97079   -506.58909    534.59658    28.007482    739.98864   -506.58909            0    -11.46852            0            0            0            0            0            0 
10024000    978.78817    44574.429    344.97832   -534.65447    525.46888   -9.1855868    627.09752   -534.65447            0   -11.748654            0            0            0            0            0            0 
10025000    928.76821    44708.993    334.01075   -531.23738    508.76315   -22.474239    583.11496   -531.23738            0   -11.713293            0            0            0            0            0            0 
10026000    817.80924    45975.822    335.80112    -522.2577    511.49022   -10.767473    537.58196    -522.2577            0   -11.390542            0            0            0            0            0            0 
10027000     946.4308    45083.776    354.59034   -529.90701    540.10985     10.20284    632.48169   -529.90701            0    -11.61592            0            0            0            0            0            0 
10028000    660.50872    45739.277    347.73509   -544.27344    529.66798   -14.605456    425.99378   -544.27344            0    -11.44945            0            0            0            0            0            0 
10029000    900.74797    44390.586    316.98591   -536.64318    482.83102   -53.812165    529.32411   -536.64318            0   -11.797311            0            0            0            0            0            0 
10030000    804.09231    43869.757    344.75233   -565.31534    525.12466   -40.190683    474.26389   -565.31534            0    -11.93737            0            0            0            0            0            0 
10031000    792.30595    44799.587    348.22941   -553.32004    530.42093   -22.899112    494.75875   -553.32004            0   -11.689607            0            0            0            0            0            0 
10032000    969.86809    43370.767     348.3067   -560.16228    530.53866   -29.623626    583.83554   -560.16228            0   -12.074713            0            0            0            0            0            0 
10033000    994.81238    44451.477     360.4449   -537.36252    549.02749    11.664969    656.58114   -537.36252            0   -11.781151            0            0            0            0            0            0 
10034000    892.41179    44056.003    339.25888   -552.45593    516.75707    -35.69886    537.68608   -552.45593            0   -11.886906            0            0            0            0            0            0 
10035000    940.05619    44848.129     345.4029   -536.68244    526.11561    -10.56683    604.29004   -536.68244            0   -11.676954            0            0            0            0            0            0 
10036000    791.32438    45051.618    328.13214   -544.90878    499.80889   -45.099892    474.82526   -544.90878            0   -11.624212            0            0            0            0            0            0 
10037000     857.8149    44612.801    334.62793   -542.20866    509.70323   -32.505435    525.61634   -542.20866            0   -11.738549            0            0            0            0            0            0 
10038000    1021.9768    44512.833     363.8289   -533.05821    554.18197    21.123762    684.56452   -533.05821            0   -11.764912            0            0            0            0            0            0 
10039000    920.83055    44876.835    331.18468   -526.58838     504.4585   -22.129889     580.5377   -526.58838            0   -11.669485            0            0            0            0            0            0 
10040000    887.61261    44411.128    350.54715     -538.333    533.95129   -4.3817024    570.51677     -538.333            0   -11.791854            0            0            0            0            0            0 
10041000    822.75708    44490.619    309.73536   -542.59068    471.78702   -70.803662    463.04231   -542.59068            0   -11.770786            0            0            0            0            0            0 
10042000    891.03562    45190.143      346.323   -534.78529     527.5171   -7.2681915    579.97052   -534.78529            0   -11.588579            0            0            0            0            0            0 
10043000    896.56735     44187.77    346.13816   -556.78086    527.23555   -29.545306    548.23256   -556.78086            0   -11.851459            0            0            0            0            0            0 
10044000    839.09758    45472.891    353.68029   -534.85863    538.72367    3.8650309    560.33396   -534.85863            0   -11.516522            0            0            0            0            0            0 
10045000    823.99851    43704.849    337.84894   -564.10472    514.60945   -49.495266    475.71347   -564.10472            0   -11.982413            0            0            0            0            0            0 
10046000    1079.0464    44456.827     359.8681   -529.44542    548.14891    18.703488    718.31105   -529.44542            0   -11.779733            0            0            0            0            0            0 
10047000    999.46956    44583.394    353.10263    -537.5679    537.84378    0.2758759    650.13405    -537.5679            0   -11.746292            0            0            0            0            0            0 
10048000    783.02031    44398.758    320.48042   -551.45178    488.15383   -63.297951     443.7158   -551.45178            0    -11.79514            0            0            0            0            0            0 
10049000    817.24105    44576.859    316.81023    -542.3827    482.56342   -59.819282    471.47547    -542.3827            0   -11.748014            0            0            0            0            0            0 
10050000    856.83503     44360.58    346.27147   -550.71061    527.43861   -23.271997    531.06048   -550.71061            0   -11.805291            0            0            0            0            0            0 
10051000    916.87518    44093.605    343.03319   -544.40001    522.50607   -21.893941    567.71182   -544.40001            0   -11.876769            0            0            0            0            0            0 
10052000    806.16712    45761.702    339.82733   -530.45945    517.62292   -12.836526    525.18933   -530.45945            0   -11.443839            0            0            0            0            0            0 
10053000     740.9005    45539.105    351.60253   -540.08434    535.55885   -4.5254902    487.53701   -540.08434            0   -11.499777            0            0            0            0            0            0 
10054000    822.67155    43259.744    317.77703   -569.06038    484.03604   -85.024333    433.99832   -569.06038            0   -12.105701            0            0            0            0            0            0 
10055000    824.09203    46391.713    356.49717   -521.72125    543.01433    21.293079    578.85359   -521.72125            0   -11.288429            0            0            0            0            0            0 
10056000    852.52792    44879.324    347.49705   -545.07493     529.3054   -15.769529    542.22611   -545.07493            0   -11.668838            0            0            0            0            0            0 
10057000    721.27868    45443.781    356.40257   -549.83331    542.87023   -6.9630732    471.06504   -549.83331            0   -11.523899            0            0            0            0            0            0 
10058000    720.40012    44199.764     341.2542   -566.19076    519.79632   -46.394432    417.98141   -566.19076            0   -11.848243            0            0            0            0            0            0 
10059000    848.78371    44495.661    336.55301   -548.84853     512.6355   -36.213033    514.58272   -548.84853            0   -11.769452            0            0            0            0            0            0 
10060000    910.17865    44777.222    345.63832   -539.75943    526.47419   -13.285244    581.08859   -539.75943            0   -11.695445            0            0            0            0            0            0 
10061000    808.07509    46083.816    354.04112   -531.80745    539.27328    7.4658305    550.56113   -531.80745            0   -11.363849            0            0            0            0            0            0 
10062000     888.1412      43771.9      336.753   -558.67119    512.94012   -45.731066    521.23009   -558.67119            0   -11.964058            0            0            0            0            0            0 
10063000    735.22711    44952.895    342.34081   -548.34599    521.45145    -26.89454    455.11437   -548.34599            0    -11.64974            0            0            0            0            0            0 
10064000    867.10182    43823.328    343.86763   -559.60637    523.77709   -35.829278    518.35135   -559.60637            0   -11.950018            0            0            0            0            0            0 
10065000    800.82805     45936.85    326.83659    -534.5923     497.8355   -36.756791    499.75143    -534.5923            0   -11.400206            0            0            0            0            0            0 
10066000     964.0121     43366.04    333.14243    -557.7817    507.44052   -50.341181    559.34751    -557.7817            0   -12.076029            0            0            0            0            0            0 
10067000    900.31349     45885.72    342.28789   -521.57634    521.37083  -0.20550722    602.28081   -521.57634            0   -11.412909            0            0            0            0            0            0 
10068000    1022.6461    44383.137    336.97178   -535.87153    513.27337   -22.598154    639.34281   -535.87153            0   -11.799291            0            0            0            0            0            0 
10069000    982.11269    44122.167    334.25755   -538.96202    509.13908   -29.822944    602.14354   -538.96202            0    -11.86908            0            0            0            0            0            0 
10070000    893.29839    45454.708    329.51652   -524.44672    501.91756   -22.529165    569.64753   -524.44672            0   -11.521129            0            0            0            0            0            0 
10071000    933.65027     44516.47    313.21979   -538.54408    477.09448   -61.449601    544.70141   -538.54408            0    -11.76395            0            0            0            0            0            0 
10072000    817.18149    45392.378    343.97956   -538.38693    523.94758   -14.439347    526.53584   -538.38693            0   -11.536949            0            0            0            0            0            0 
10073000    986.02577    44087.904    355.74235   -544.12306    541.86459   -2.2584669    631.73329   -544.12306            0   -11.878304            0            0            0            0            0            0 
10074000    814.36426    43411.998    336.87862   -569.93651    513.13147   -56.805041    458.78482   -569.93651            0   -12.063244            0            0            0            0            0            0 
10075000    973.94377    43286.177    345.84268   -550.60852    526.78547   -23.823047    591.01255   -550.60852            0   -12.098309            0            0            0            0            0            0 
10076000    893.20274    45017.268    324.77933   -532.78508     494.7019   -38.083185    548.33181   -532.78508            0   -11.633082            0            0            0            0            0            0 
10077000    851.71968     43834.18    340.01943   -562.07554    517.91553   -44.160013     500.3244   -562.07554            0   -11.947059            0            0            0            0            0            0 
10078000    851.73034    44002.548    355.87968   -560.79111    542.07377   -18.717336     527.8653   -560.79111            0   -11.901346            0            0            0            0            0            0 
10079000    861.12938    44552.503    329.33916   -545.71596    501.64742   -44.068545    515.45247   -545.71596            0   -11.754436            0            0            0            0            0            0 
10080000    815.31902    44012.604    339.81211   -558.83083    517.59975   -41.231081    482.10482   -558.83083            0   -11.898627            0            0            0            0            0            0 
10081000    878.78277    44667.614    333.53124   -540.84663    508.03276   -32.813862    539.65277   -540.84663            0   -11.724144            0            0            0            0            0            0 
10082000    862.56952    43228.856    338.72746    -569.1772    515.94762   -53.229576     490.5761    -569.1772            0   -12.114351            0            0            0            0            0            0 
10083000    781.63411    44482.071    338.43209   -561.27517    515.49771   -45.777454    461.28843   -561.27517            0   -11.773048            0            0            0            0            0            0 
10084000     841.9767    44212.044    338.31491   -553.39378    515.31921   -38.074568    504.82133   -553.39378            0   -11.844952            0            0            0            0            0            0 
10085000    804.05196    45017.771    356.67217   -551.25917    543.28089   -7.9782845     519.9124   -551.25917            0   -11.632951            0            0            0            0            0            0 
10086000    956.33375    44813.685    340.89593   -530.92355    519.25061   -11.672939    613.35011   -530.92355            0   -11.685929            0            0            0            0            0            0 
10087000    888.81185    43671.168    358.57576   -562.08207    546.18042   -15.901658    550.18189   -562.08207            0   -11.991654            0            0            0            0            0            0 
10088000    932.85264     44705.56     353.5584   -540.48869    538.53802   -1.9506771    606.25501   -540.48869            0   -11.714193            0            0            0            0            0            0 
10089000    1067.9024    43767.499    327.11512   -537.80367    498.25977   -39.543902    642.10253   -537.80367            0   -11.965261            0            0            0            0            0            0 
10090000    925.53272    45058.939     325.8287   -531.52661     496.3003   -35.226316    572.97678   -531.52661            0   -11.622323            0            0            0            0            0            0 
10091000    802.99664    44703.815    350.64923   -555.77478    534.10679   -21.667996    501.85312   -555.77478            0    -11.71465            0            0            0            0            0            0 
10092000    841.22326    45175.885    339.52914   -542.84052    517.16873   -25.671792    528.56306   -542.84052            0   -11.592237            0            0            0            0            0            0 
10093000    873.06665    44310.494    322.11296   -546.01405    490.64051   -55.373536     508.8223   -546.01405            0   -11.818635            0            0            0            0            0            0 
10094000    794.88491    44728.347    343.12788   -552.54619    522.65031   -29.895886     488.6211   -552.54619            0   -11.708225            0            0            0            0            0            0 
10095000    867.25655    42756.925    324.13227   -576.57767    493.71631   -82.861359    457.93025   -576.57767            0   -12.248064            0            0            0            0            0            0 
10096000    890.87909    45014.053    322.98912   -537.39133    491.97507   -45.416262    539.43141   -537.39133            0   -11.633912            0            0            0            0            0            0 
10097000    1046.7199    44102.121    326.61963   -538.62878    497.50504   -41.123738    632.10998   -538.62878            0   -11.874475            0            0            0            0            0            0 
10098000    889.74638    45128.369    338.38998   -528.40234    515.43357    -12.96877    572.61867   -528.40234            0   -11.604442            0            0            0            0            0            0 
10099000    775.96595    44415.093    348.21538     -555.405    530.39955   -25.005451    477.62539     -555.405            0   -11.790801            0            0            0            0            0            0 
10100000    1124.0144    43978.412     324.6749   -526.69303    494.54283   -32.150201     688.7702   -526.69303            0   -11.907878            0            0            0            0            0            0 
10101000    944.21574    43562.966     322.4495   -549.67576    491.15312   -58.522642    541.35761   -549.67576            0   -12.021439            0            0            0            0            0            0 
10102000    880.45396    45048.031    341.98818   -538.60816    520.91432   -17.693839    560.74622   -538.60816            0   -11.625137            0            0            0            0            0            0 
10103000    1035.9881    44350.887     339.0733   -530.29573    516.47439   -13.821332    656.26843   -530.29573            0   -11.807871            0            0            0            0            0            0 
10104000    903.51215    45044.516    334.93652   -531.34531    510.17328   -21.172034    572.37045   -531.34531            0   -11.626045            0            0            0            0            0            0 
10105000    953.44099    43454.833    329.65796   -552.83413      502.133   -50.701129    553.53653   -552.83413            0   -12.051353            0            0            0            0            0            0 
10106000    996.33905    45246.825    363.51679   -528.81947    553.70656    24.887092    682.34984   -528.81947            0   -11.574062            0            0            0            0            0            0 
10107000    951.69936    44908.055    338.24131   -525.90532    515.20711   -10.698209    612.60579   -525.90532            0   -11.661372            0            0            0            0            0            0 
10108000    780.68046    44823.928    356.19478   -548.49608    542.55372   -5.9423615    504.39705   -548.49608            0   -11.683259            0            0            0            0            0            0 
10109000    991.30078    44087.014    337.30926   -538.89224    513.78742   -25.104817    612.26578   -538.89224            0   -11.878544            0            0            0            0            0            0 
10110000    1063.9819     44553.01    329.09351   -526.86546    501.27324   -25.592213    665.74061   -526.86546            0   -11.754302            0            0            0            0            0            0 
10111000     960.8619    45242.025    338.62102   -525.07172    515.78549   -9.2862305    624.69865   -525.07172            0    -11.57529            0            0            0            0            0            0 
10112000    977.82545    44642.805    342.39989   -531.28393    521.54144   -9.7424918    626.88985   -531.28393            0   -11.730659            0            0            0            0            0            0 
10113000    1000.8345    44766.402      352.019   -531.21607    536.19321    4.9771436      658.394   -531.21607            0   -11.698272            0            0            0            0            0            0 
10114000    970.40281    44042.015     332.5053   -542.33293    506.47005   -35.862883    587.43423   -542.33293            0   -11.890681            0            0            0            0            0            0 
10115000    826.99529    44670.745    332.49275   -546.93239    506.45094   -40.481456    498.28696   -546.93239            0   -11.723322            0            0            0            0            0            0 
10116000    698.73959    45541.985    341.61054   -544.32102     520.3391   -23.981913    440.10915   -544.32102            0    -11.49905            0            0            0            0            0            0 
10117000    1098.6321    43154.972    338.14518   -546.47651    515.06069   -31.415813    660.03138   -546.47651            0   -12.135092            0            0            0            0            0            0 
10118000     949.0493    43538.011    348.29574   -557.63508    530.52196   -27.113121    575.49259   -557.63508            0    -12.02833            0            0            0            0            0            0 
10119000     893.3863    44904.252    344.35763    -535.1007    524.52345   -10.577246    574.48577    -535.1007            0    -11.66236            0            0            0            0            0            0 
10120000    978.37287    45026.589    346.43082    -529.2581    527.68132   -1.5767867    640.88802    -529.2581            0   -11.630673            0            0            0            0            0            0 
10121000    849.25388    44120.018    348.13055   -553.11767    530.27035   -22.847323    523.60102   -553.11767            0   -11.869658            0            0            0            0            0            0 
10122000     1064.339    43917.928    338.41069   -529.69044    515.46511   -14.225339    667.48162   -529.69044            0   -11.924277            0            0            0            0            0            0 
10123000    856.27223    44630.056    348.32778   -547.31909    530.57077   -16.748325    540.58522   -547.31909            0    -11.73401            0            0            0            0            0            0 
10124000    815.69348    45934.742    347.16125    -527.6778    528.79391    1.1161068    547.55822    -527.6778            0   -11.400729            0            0            0            0            0            0 
10125000    984.13984    44795.396    341.70541   -530.37678     520.4836   -9.8931747    633.04036   -530.37678            0     -11.6907            0            0            0            0            0            0 
10126000    873.77087    44222.117    314.14582   -546.74707    478.50501   -68.242062    495.28267   -546.74707            0   -11.842254            0            0            0            0            0            0 
10127000    1093.4571    43732.798    337.53332   -543.53118     514.1287   -29.402477    668.00229   -543.53118            0   -11.974755            0            0            0            0            0            0 
10128000    964.15541    44837.029    361.98216   -536.00879    551.36904    15.360244    645.82347   -536.00879            0   -11.679845            0            0            0            0            0            0 
10129000    1175.8925    43122.731    352.69483   -548.25616    537.22263   -11.033531    728.48618   -548.25616            0   -12.144165            0            0            0            0            0            0 
10130000    957.95106    45170.128    351.98763   -521.52421    536.14543    14.621219    645.68105   -521.52421            0   -11.593714            0            0            0            0            0            0 
10131000    893.67307    43778.998    365.95823   -557.85601    557.42535  -0.43065484    570.15438   -557.85601            0   -11.962118            0            0            0            0            0            0 
10132000    838.77658     44955.47    325.80013   -536.72408    496.25678   -40.467305     509.4593   -536.72408            0   -11.649073            0            0            0            0            0            0 
10133000    875.10998    43944.522    317.18333   -550.30159    483.13172   -67.169871    493.67567   -550.30159            0   -11.917061            0            0            0            0            0            0 
10134000    716.47677    45849.856     316.3146   -541.25779    481.80848   -59.449309    419.63945   -541.25779            0   -11.421836            0            0            0            0            0            0 
10135000    1081.7729    43132.454    336.27547   -543.51913    512.21275    -31.30638    649.17486   -543.51913            0   -12.141427            0            0            0            0            0            0 
10136000    886.50954    44072.919    351.15126   -544.32985    534.87146   -9.4583917    560.35299   -544.32985            0   -11.882343            0            0            0            0            0            0 
10137000    882.16707    44306.244     353.8587   -548.06993    538.99543   -9.0745036    560.94757   -548.06993            0   -11.819768            0            0            0            0            0            0 
10138000    847.56373    45129.996    342.10937   -537.85945    521.09891   -16.760537    541.08447   -537.85945            0   -11.604024            0            0            0            0            0            0 
10139000    772.43349    44888.952    354.55372    -554.3205    540.05407   -14.266422    491.41436    -554.3205            0   -11.666335            0            0            0            0            0            0 
10140000    693.20806    45501.618    311.71125   -548.03001    474.79668   -73.233334    386.77568   -548.03001            0   -11.509251            0            0            0            0            0            0 
10141000    1083.9503    42553.397     330.5873   -557.48728    503.54857    -53.93871    618.75827   -557.48728            0   -12.306645            0            0            0            0            0            0 
10142000    952.01214    44255.664    336.15807   -537.03099    512.03393   -24.997064    589.45391   -537.03099            0   -11.833277            0            0            0            0            0            0 
10143000    714.69834    45101.693    310.42852   -545.14317    472.84284    -72.30033    397.80103   -545.14317            0   -11.611306            0            0            0            0            0            0 
10144000    943.40695    44039.142    342.81476   -548.40494    522.17337   -26.231572    579.68637   -548.40494            0   -11.891457            0            0            0            0            0            0 
10145000    831.74043    46757.404    352.43255   -517.60294    536.82313    19.220189    586.39128   -517.60294            0   -11.200142            0            0            0            0            0            0 
10146000    939.03506    43669.177    335.68513   -554.06855    511.31355   -42.754993    555.28841   -554.06855            0   -11.992201            0            0            0            0            0            0 
10147000     929.9907    44358.663      334.547   -540.70405    509.57996    -31.12409     570.5107   -540.70405            0   -11.805801            0            0            0            0            0            0 
10148000    673.99233    44497.361    375.07484   -575.26106    571.31172   -3.9493318    433.43689   -575.26106            0   -11.769002            0            0            0            0            0            0 
10149000    839.78037    44802.896    334.01113   -544.27502    508.76373   -35.511296    513.20479   -544.27502            0   -11.688743            0            0            0            0            0            0 
10150000     802.2182    45728.481    338.89066   -537.31724     516.1962   -21.121033    513.88068   -537.31724            0   -11.452153            0            0            0            0            0            0 
10151000    897.55531    44684.937     340.7222   -540.03611    518.98599   -21.050122    563.87229   -540.03611            0   -11.719599            0            0            0            0            0            0 
10152000    984.85883    44338.247    328.86148   -530.93615    500.91981   -30.016337    606.82081   -530.93615            0   -11.811237            0            0            0            0            0            0 
10153000    780.99494    44751.109    348.11342   -548.85691    530.24426   -18.612657    491.10292   -548.85691            0    -11.70227            0            0            0            0            0            0 
10154000    802.51119    45440.321    324.86178    -528.9654    494.82749   -34.137911    497.68664    -528.9654            0   -11.524776            0            0            0            0            0            0 
10155000    871.46112    44317.067    345.21813   -545.71387    525.83417   -19.879703    543.36215   -545.71387            0   -11.816882            0            0            0            0            0            0 
10156000    864.37066    44940.523    351.54094   -545.55614    535.46503   -10.091108     556.4273   -545.55614            0   -11.652947            0            0            0            0            0            0 
10157000    1018.0357    44819.862    352.76561    -522.8112    537.33044     14.51924    679.96002    -522.8112            0   -11.684318            0            0            0            0            0            0 
10158000    1026.9639     44260.67    338.65086   -532.42359    515.83094   -16.592653     646.3089   -532.42359            0   -11.831939            0            0            0            0            0            0 
10159000    1063.2074    43344.831    340.01416   -545.14236     517.9075   -27.234859    644.86097   -545.14236            0   -12.081938            0            0            0            0            0            0 
10160000    723.11716    45652.811    344.10713   -544.71105     524.1419    -20.56915    460.88184   -544.71105            0   -11.471135            0            0            0            0            0            0 
10161000    836.00707    43654.105     347.7196   -565.17708    529.64439   -35.532691     496.7115   -565.17708            0   -11.996341            0            0            0            0            0            0 
10162000    771.17362     43753.37    335.20032   -569.99338    510.57509   -59.418293    432.66606   -569.99338            0   -11.969125            0            0            0            0            0            0 
10163000    790.29788    45157.391    348.06511   -539.96193    530.17066   -9.7912731    510.67855   -539.96193            0   -11.596984            0            0            0            0            0            0 
10164000    913.26148    44284.255    353.32226   -547.01297    538.17833   -8.8346426    580.98655   -547.01297            0   -11.825637            0            0            0            0            0            0 
10165000    920.85781    44376.703    336.72032    -541.1447    512.89035   -28.254353    567.71441    -541.1447            0   -11.801002            0            0            0            0            0            0 
10166000    850.16798    43361.162    344.40027   -568.74721     524.5884   -44.158807    493.46878   -568.74721            0   -12.077387            0            0            0            0            0            0 
10167000    726.61307    45435.108    342.29575    -547.5222    521.38281   -26.139386     455.3322    -547.5222            0   -11.526099            0            0            0            0            0            0 
10168000    833.84129    45064.087    332.56525   -547.37258    506.56138   -40.811207    507.20053   -547.37258            0   -11.620995            0            0            0            0            0            0 
10169000    1038.0512    44401.142    339.97998   -528.32583    517.85544   -10.470393    661.71459   -528.32583            0   -11.794506            0            0            0            0            0            0 
10170000    926.15852    44243.422    343.60867   -541.46246    523.38264   -18.079816    579.51927   -541.46246            0   -11.836552            0            0            0            0            0            0 
10171000    702.66594    45246.952    348.50839    -544.9733    530.84586   -14.127441    449.54803    -544.9733            0   -11.574029            0            0            0            0            0            0 
10172000    748.51177    44472.576    346.68248   -555.62063    528.06465   -27.555981    457.91896   -555.62063            0   -11.775561            0            0            0            0            0            0 
10173000    939.28062    43601.796    347.73934   -560.52601    529.67445   -30.851554    566.42523   -560.52601            0   -12.010733            0            0            0            0            0            0 
10174000    1097.1503    44340.439    339.39637   -526.26967     516.9665   -9.3031744    700.17987   -526.26967            0   -11.810653            0            0            0            0            0            0 
10175000    1019.0839    44396.639    347.47295     -542.142    529.26869   -12.873303    646.96257     -542.142            0   -11.795702            0            0            0            0            0            0 
10176000    751.63131    45276.833    345.49332   -543.82382    526.25333   -17.570498    478.74381   -543.82382            0   -11.566391            0            0            0            0            0            0 
10177000     843.6909    44764.516    345.65736   -549.65272     526.5032   -23.149526    527.64948   -549.65272            0   -11.698765            0            0            0            0            0            0 
10178000     889.5108    45067.406    320.87728   -539.92136    488.75833   -51.163031    533.47851   -539.92136            0    -11.62014            0            0            0            0            0            0 
10179000    778.63497    44850.113    338.48066   -550.80062    515.57168   -35.228937    474.07067   -550.80062            0   -11.676437            0            0            0            0            0            0 
10180000    656.54662    46838.603    344.21932   -535.53617    524.31279   -11.223378    437.25901   -535.53617            0   -11.180725            0            0            0            0            0            0 
10181000    1096.0226     43010.96    351.73864   -557.85868    535.76617   -22.092508    665.41038   -557.85868            0   -12.175723            0            0            0            0            0            0 
10182000    1052.7466    43330.606    353.76968   -551.73362    538.85983   -12.873792    652.39093   -551.73362            0   -12.085904            0            0            0            0            0            0 
10183000    928.68759    44989.016     335.6641   -532.04662    511.28152   -20.765096    588.56415   -532.04662            0   -11.640387            0            0            0            0            0            0 
10184000    866.76507    43906.795    347.68248   -553.10276    529.58784    -23.51492    531.50559   -553.10276            0   -11.927301            0            0            0            0            0            0 
10185000    979.54873    44074.616    340.92451   -544.41855    519.29414   -25.124407    604.51293   -544.41855            0   -11.881886            0            0            0            0            0            0 
10186000    803.65536    45259.097    323.46695   -540.32115     492.7029   -47.618246    482.84051   -540.32115            0   -11.570923            0            0            0            0            0            0 
10187000    1023.8965    42787.859    342.25657   -557.43812    521.32312   -36.114991    602.81387   -557.43812            0   -12.239209            0            0            0            0            0            0 
10188000     830.1245    45306.777    362.14079   -536.88018    551.61066    14.730481    563.23763   -536.88018            0   -11.558746            0            0            0            0            0            0 
10189000    818.90091    44053.811    314.57623   -554.70749     479.1606   -75.546894    450.58027   -554.70749            0   -11.887497            0            0            0            0            0            0 
10190000     965.1297    43782.128    324.67587   -544.87229    494.54431   -50.327974    565.92416   -544.87229            0   -11.961263            0            0            0            0            0            0 
10191000    1131.5445    44047.824     345.5701   -523.27892    526.37028    3.0913596    729.98687   -523.27892            0   -11.889113            0            0            0            0            0            0 
10192000    969.74744    43374.231    334.04062   -557.84264    508.80865   -49.033989    564.39787   -557.84264            0   -12.073748            0            0            0            0            0            0 
10193000    933.04745    45931.478    351.70817   -516.16491    535.71974    19.554836    644.56926   -516.16491            0   -11.401539            0            0            0            0            0            0 
10194000    940.27588    43173.306    319.98586   -560.64062    487.40052   -73.240109    518.79367   -560.64062            0   -12.129939            0            0            0            0            0            0 
10195000    817.73374    45061.624    349.10247   -539.66083    531.75076   -7.9100657     529.4862   -539.66083            0   -11.621631            0            0            0            0            0            0 
10196000    858.57957    45418.638    338.92163   -528.83986    516.24337   -12.596484    556.11309   -528.83986            0   -11.530279            0            0            0            0            0            0 
10197000    718.45174    46313.655    326.89942   -535.76021    497.93122   -37.828986    447.44001   -535.76021            0   -11.307455            0            0            0            0            0            0 
10198000    1074.2641    42669.086    344.79438   -552.26318    525.18871   -27.074467     641.4238   -552.26318            0   -12.273278            0            0            0            0            0            0 
10199000    852.67861    44593.691     332.6274   -546.90406    506.65605   -40.248014    514.29428   -546.90406            0   -11.743579            0            0            0            0            0            0 
10200000    766.10818    45702.042    330.99209   -534.53843    504.16514   -30.373296    480.25114   -534.53843            0   -11.458778            0            0            0            0            0            0 
10201000    796.45244     43912.62    336.17677   -560.09897    512.06242   -48.036546    462.02794   -560.09897            0   -11.925718            0            0            0            0            0            0 
10202000    845.84514    46398.514    340.75242   -520.87085    519.03201   -1.8388316     570.5232   -520.87085            0   -11.286774            0            0            0            0            0            0 
10203000    929.23463     43624.33    347.23181   -552.74348    528.90138   -23.842095    567.35195   -552.74348            0   -12.004529            0            0            0            0            0            0 
10204000    910.11064    43992.687    355.20369   -549.01466     541.0441   -7.9705607     575.9457   -549.01466            0   -11.904014            0            0            0            0            0            0 
10205000    1070.2704    44270.754      345.659    -528.9942     526.5057    -2.488505    688.52467    -528.9942            0   -11.829244            0            0            0            0            0            0 
10206000    684.58342    47950.317    354.24428   -509.55814    539.58274    30.024608    508.75803   -509.55814            0   -10.921503            0            0            0            0            0            0 
10207000    984.50573     43399.66    342.87416   -553.34049    522.26385   -31.076641    592.05594   -553.34049            0   -12.066674            0            0            0            0            0            0 
10208000    912.62907    44449.459    336.65051   -538.95906    512.78401   -26.175054    565.43653   -538.95906            0   -11.781686            0            0            0            0            0            0 
10209000    951.86406    43350.316    336.77778   -561.64545    512.97787   -48.667576    553.11982   -561.64545            0   -12.080409            0            0            0            0            0            0 
10210000    828.84048    44313.664    352.66515   -556.14673    537.17741   -18.969317    516.68486   -556.14673            0   -11.817789            0            0            0            0            0            0 
10211000    1142.3903    44216.896    354.56873   -524.18697    540.07695    15.889972    752.56959   -524.18697            0   -11.843652            0            0            0            0            0            0 
10212000    1080.3693    43275.346    342.56206   -549.62775    521.78845   -27.839305    654.01041   -549.62775            0   -12.101337            0            0            0            0            0            0 
10213000    1093.8213    43835.883    348.47023   -540.31845    530.78775   -9.5307038    689.75075   -540.31845            0   -11.946595            0            0            0            0            0            0 
10214000    607.64908     44995.51    328.83879   -562.98537    500.88526   -62.100116    336.64733   -562.98537            0   -11.638707            0            0            0            0            0            0 
10215000    822.21848    45649.875     334.3314   -532.77961    509.25156   -23.528053    523.86933   -532.77961            0   -11.471872            0            0            0            0            0            0 
10216000    876.33412    44525.411    330.92699    -539.5219    504.06598   -35.455917    533.59818    -539.5219            0   -11.761588            0            0            0            0            0            0 
10217000    658.46165    46010.349    330.47698   -543.83462    503.38053   -40.454088    401.38273   -543.83462            0   -11.381995            0            0            0            0            0            0 
10218000    792.63874    44440.302     325.1253   -546.92031    495.22888   -51.691423     462.0306   -546.92031            0   -11.784113            0            0            0            0            0            0 
10219000    838.03956    45265.448    330.75471   -531.95816    503.80357   -28.154591    525.07732   -531.95816            0     -11.5693            0            0            0            0            0            0 
10220000    761.77632    43406.505    329.49091   -581.23137    501.87856   -79.352814    402.88157   -581.23137            0   -12.064771            0            0            0            0            0            0 
10221000    797.05244    44587.006    323.39778   -549.31291    492.59754   -56.715369    461.57256   -549.31291            0    -11.74534            0            0            0            0            0            0 
10222000    753.25573    46148.076    355.53861   -532.95789    541.55426    8.5963656    515.55432   -532.95789            0   -11.348025            0            0            0            0            0            0 
10223000     950.4937    44184.062     328.2943   -541.64335    500.05589    -41.58746    570.89094   -541.64335            0   -11.852454            0            0            0            0            0            0 
10224000    979.49138    42777.378    337.55843   -566.31327    514.16695    -52.14632    558.92327   -566.31327            0   -12.242208            0            0            0            0            0            0 
10225000    841.02424    45395.072    328.90874   -533.60932     500.9918    -32.61751    524.17464   -533.60932            0   -11.536264            0            0            0            0            0            0 
10226000    1034.9536    43044.473    332.81779   -552.04622    506.94604   -45.100184    604.60177   -552.04622            0   -12.166244            0            0            0            0            0            0 
10227000    760.75051    45204.896    334.42004   -546.04412    509.38657   -36.657552    464.88019   -546.04412            0   -11.584797            0            0            0            0            0            0 
10228000    697.31697    46481.353    334.82049   -526.45805    509.99654   -16.461511    456.23771   -526.45805            0   -11.266659            0            0            0            0            0            0 
10229000    969.30033    44086.853     343.0409   -548.06048    522.51781   -25.542668    597.68016   -548.06048            0   -11.878588            0            0            0            0            0            0 
10230000    769.88715    45444.647    350.11505   -544.30074    533.29311   -11.007623    499.24553   -544.30074            0   -11.523679            0            0            0            0            0            0 
10231000    775.19951    44053.055    339.47606   -564.88787    517.08787   -47.799998    450.24136   -564.88787            0   -11.887701            0            0            0            0            0            0 
10232000    977.53681    45315.272     326.2308   -521.30761    496.91278   -24.394839    621.63652   -521.30761            0    -11.55658            0            0            0            0            0            0 
10233000    931.63285    43688.346    342.65959   -559.50881    521.93701     -37.5718     556.0178   -559.50881            0   -11.986939            0            0            0            0            0            0 
10234000    844.40949    45403.647    354.11948   -537.51186    539.39264    1.8807768    561.01971   -537.51186            0   -11.534085            0            0            0            0            0            0 
10235000    726.01526    45795.922    332.34582   -539.29827    506.22714   -33.071126     451.8247   -539.29827            0   -11.435288            0            0            0            0            0            0 
10236000    912.22362    44349.926    322.26016   -541.71023    490.86472   -50.845508    539.17907   -541.71023            0   -11.808127            0            0            0            0            0            0 
10237000    859.12868    44155.948    339.10496   -548.06051    516.52262   -31.537889    521.71453   -548.06051            0       -11.86            0            0            0            0            0            0 
10238000    1010.0087    44045.272    339.58123   -537.14841    517.24806   -19.900344    628.88392   -537.14841            0   -11.889802            0            0            0            0            0            0 
10239000    928.06723    45023.089    358.43953   -534.26832    545.97292    11.704599      621.088   -534.26832            0   -11.631577            0            0            0            0            0            0 
10240000    852.38301    45562.512    356.32566   -535.76908    542.75309    6.9840073     573.3776   -535.76908            0   -11.493869            0            0            0            0            0            0 
10241000    972.71213    44610.459    338.92655   -531.07842    516.25087   -14.827548    618.01682   -531.07842            0   -11.739165            0            0            0            0            0            0 
10242000     826.1964    44728.194    353.68772   -548.47222      538.735   -9.7372258    529.20294   -548.47222            0   -11.708265            0            0            0            0            0            0 
10243000    764.28924    44542.701    319.72178   -557.09775    486.99827   -70.099478    426.39016   -557.09775            0   -11.757023            0            0            0            0            0            0 
10244000    963.66522    44331.345    329.76277   -538.07502    502.29266   -35.782359    587.25341   -538.07502            0   -11.813076            0            0            0            0            0            0 
10245000    895.17656    46167.052    345.51521   -518.01033    526.28667    8.2763438    610.99791   -518.01033            0   -11.343361            0            0            0            0            0            0 
10246000    1001.0403    42833.497    327.00715   -559.84118     498.0953   -61.745873    563.58658   -559.84118            0   -12.226168            0            0            0            0            0            0 
10247000    849.01714    44674.457    345.68259   -545.59977    526.54163   -19.058138    534.10295   -545.59977            0   -11.722348            0            0            0            0            0            0 
10248000     902.3623    44426.105    376.26423   -550.37023    573.12339    22.753162    607.40197   -550.37023            0   -11.787879            0            0            0            0            0            0 
10249000    780.29262    44803.531    323.00637    -544.8999    492.00134   -52.898554    456.95522    -544.8999            0   -11.688577            0            0            0            0            0            0 
10250000    983.02508    45810.911    340.23118   -514.79871    518.23806    3.4393532    660.20347   -514.79871            0   -11.431546            0            0            0            0            0            0 
10251000     971.3666    45985.659    371.87412   -517.25659    566.43641    49.179819    700.63039   -517.25659            0   -11.388106            0            0            0            0            0            0 
10252000    936.21793    44686.803    363.77564   -540.19495    554.10085    13.905901     624.0496   -540.19495            0    -11.71911            0            0            0            0            0            0 
10253000    935.42926    43359.048    351.42994   -566.21476    535.29595   -30.918805    560.59731   -566.21476            0   -12.077976            0            0            0            0            0            0 
10254000    856.54739    44131.027    326.94355    -549.9216    497.99843   -51.923171    499.35566    -549.9216            0   -11.866697            0            0            0            0            0            0 
10255000    732.00885    44360.024    336.57578   -558.43412    512.67019   -45.763932    427.80586   -558.43412            0   -11.805439            0            0            0            0            0            0 
10256000    799.98799    45603.115    329.41974   -530.48319    501.77016   -28.713031     503.3387   -530.48319            0   -11.483635            0            0            0            0            0            0 
10257000    899.95104    44110.441    338.62081   -546.45241    515.78516   -30.667245    548.27624   -546.45241            0   -11.872236            0            0            0            0            0            0 
10258000    805.95622    45739.735    346.07712   -533.11311    527.14257   -5.9705372    531.65636   -533.11311            0   -11.449335            0            0            0            0            0            0 
10259000    821.22176    44933.607    343.17629   -544.56837    522.72405   -21.844322    516.31097   -544.56837            0   -11.654741            0            0            0            0            0            0 
10260000    827.68685    44853.565     331.0441   -544.25236    504.24436   -40.007993    501.41776   -544.25236            0   -11.675539            0            0            0            0            0            0 
10261000    824.09498    43738.805    330.43521   -563.04636    503.31691   -59.729441    465.94888   -563.04636            0   -11.973111            0            0            0            0            0            0 
10262000    855.17811    45109.895    353.34965   -546.84594    538.22004   -8.6259033       553.98   -546.84594            0   -11.609195            0            0            0            0            0            0 
10263000    1178.7153    43610.098    341.93434   -526.72235    520.83231   -5.8900442    743.78297   -526.72235            0   -12.008447            0            0            0            0            0            0 
10264000    1232.4219    42762.714    340.46754   -544.94879     518.5981   -26.350694    742.24963   -544.94879            0   -12.246406            0            0            0            0            0            0 
10265000    800.63227    44886.631    351.25867   -555.65969    535.03508   -20.624612    503.48967   -555.65969            0   -11.666938            0            0            0            0            0            0 
10266000    769.33046    43765.172    331.07773   -563.67709    504.29558   -59.381501    431.65917   -563.67709            0   -11.965897            0            0            0            0            0            0 
10267000    715.02852    46338.777     323.5266   -533.07994    492.79375   -40.286188    442.93261   -533.07994            0   -11.301324            0            0            0            0            0            0 
10268000    923.43959    43477.131    335.48602   -552.17038    511.01026   -41.160114    544.36463   -552.17038            0   -12.045173            0            0            0            0            0            0 
10269000    885.08101    44105.196    333.99746    -552.5881    508.74291   -43.845188    525.46462    -552.5881            0   -11.873647            0            0            0            0            0            0 
10270000      868.436    45134.043    358.28968   -537.19115    545.74466    8.5535094    580.18737   -537.19115            0   -11.602983            0            0            0            0            0            0 
10271000    768.85871    43996.207    331.60495   -557.67379    505.09865   -52.575145    440.75501   -557.67379            0   -11.903061            0            0            0            0            0            0 
10272000    1070.0158     44228.86    341.30911   -528.88602    519.87996    -9.006051    681.18895   -528.88602            0   -11.840449            0            0            0            0            0            0 
10273000    833.36923    44351.644    341.87906   -552.53084    520.74811   -31.782731    507.25985   -552.53084            0   -11.807669            0            0            0            0            0            0 
10274000    983.10639    44330.445    347.59317   -537.38948     529.4518    -7.937676    627.65444   -537.38948            0   -11.813316            0            0            0            0            0            0 
10275000     892.3074    44382.429    348.97678   -546.14229    531.55931   -14.582974    562.98281   -546.14229            0   -11.799479            0            0            0            0            0            0 
10276000    1137.7837    43328.953    336.13528   -536.60802    511.99922   -24.608799     694.3662   -536.60802            0   -12.086365            0            0            0            0            0            0 
10277000    851.94037    45531.595    331.75878   -532.33853    505.33297   -27.005568    538.70976   -532.33853            0   -11.501674            0            0            0            0            0            0 
10278000    893.74035    43795.133    350.26088    -558.1403    533.51525   -24.625052    546.21325    -558.1403            0   -11.957711            0            0            0            0            0            0 
10279000    841.62513    45309.821    343.90342    -529.9382     523.8316   -6.1065989    550.03699    -529.9382            0    -11.55797            0            0            0            0            0            0 
10280000    865.33219    44325.305    346.18914   -554.68419    527.31319   -27.370993    532.01358   -554.68419            0   -11.814686            0            0            0            0            0            0 
10281000    853.99773    45361.513    335.69248     -532.296    511.32475   -20.971253    543.99192     -532.296            0   -11.544799            0            0            0            0            0            0 
10282000    789.73805    44444.256    326.81825   -555.96273    497.80757   -58.155158    453.73242   -555.96273            0   -11.783065            0            0            0            0            0            0 
10283000    805.46982     46022.01    340.93206   -521.06742    519.30564   -1.7617751    538.85653   -521.06742            0   -11.379111            0            0            0            0            0            0 
10284000    801.39486    45792.113    315.22853   -533.40882    480.15418   -53.254644    481.94168   -533.40882            0   -11.436239            0            0            0            0            0            0 
10285000    992.61692    43699.061    333.18056   -545.02353    507.49861   -37.524916    595.07579   -545.02353            0      -11.984            0            0            0            0            0            0 
10286000    886.49233    45309.308    346.13274   -534.08915    527.22729   -6.8618567    578.92322   -534.08915            0   -11.558101            0            0            0            0            0            0 
10287000    938.04964    43844.479    347.39977   -553.89349    529.15722   -24.736265    575.07777   -553.89349            0   -11.944253            0            0            0            0            0            0 
10288000    870.48452    44825.153    345.17468   -540.43495    525.76798   -14.666978    554.39389   -540.43495            0   -11.682939            0            0            0            0            0            0 
10289000    878.82277    44193.318    344.75452   -554.74057      525.128   -29.612575    536.80119   -554.74057            0   -11.849971            0            0            0            0            0            0 
10290000    861.54177    45189.514    338.89531   -537.16305    516.20328   -20.959764    546.83305   -537.16305            0    -11.58874            0            0            0            0            0            0 
10291000     850.5278      44502.2    345.37834    -545.6287    526.07819   -19.550512    532.45814    -545.6287            0   -11.767723            0            0            0            0            0            0 
10292000    938.32828    44904.959    336.26269   -529.18809    512.19329   -16.994797     597.5096   -529.18809            0   -11.662176            0            0            0            0            0            0 
10293000    890.15104    44903.164    326.82509   -534.77343    497.81799   -36.955434    545.97474   -534.77343            0   -11.662642            0            0            0            0            0            0 
10294000    745.11541    44956.398    320.67046   -546.81516     488.4433   -58.371851    430.15781   -546.81516            0   -11.648832            0            0            0            0            0            0 
10295000    897.66081    44011.795    324.07642   -558.43645    493.63124   -64.805215    511.37353   -558.43645            0   -11.898845            0            0            0            0            0            0 
10296000    752.97337    46633.585    347.58699   -527.13376     529.4424    2.3086438    514.40809   -527.13376            0    -11.22988            0            0            0            0            0            0 
10297000    824.30565    44835.547    332.05389   -542.20563    505.78248    -36.42315    502.57421   -542.20563            0   -11.680231            0            0            0            0            0            0 
10298000    624.23303    46461.586    353.66968   -535.41841    538.70751    3.2891021    426.26602   -535.41841            0   -11.271452            0            0            0            0            0            0 
10299000    888.74358    43187.909    327.80224   -561.97257    499.30638   -62.666182    497.11017   -561.97257            0   -12.125837            0            0            0            0            0            0 
10300000    870.57191    44774.626    338.15539   -536.24299    515.07623   -21.166756    547.30972   -536.24299            0   -11.696123            0            0            0            0            0            0 
10301000    1002.1574    44079.859    351.55023   -540.80314    535.47918   -5.3239621    638.92248   -540.80314            0   -11.880472            0            0            0            0            0            0 
10302000    822.65942    44686.319     324.3996   -545.21631     494.1235   -51.092803    485.03774   -545.21631            0   -11.719236            0            0            0            0            0            0 
10303000    847.42696    44297.754    319.87182   -550.21496    487.22681   -62.988143    484.48129   -550.21496            0   -11.822034            0            0            0            0            0            0 
10304000    843.44795    43962.551    349.33509   -560.50363    532.10508   -28.398541    512.37703   -560.50363            0   -11.912174            0            0            0            0            0            0 
10305000     936.5339    44962.301    336.51131   -524.30969    512.57198   -11.737711    602.37477   -524.30969            0   -11.647303            0            0            0            0            0            0 
10306000    965.98577    43707.876    334.33153   -551.35504    509.25175   -42.103282    573.64942   -551.35504            0   -11.981583            0            0            0            0            0            0 
10307000    718.16837    45317.674    336.41495   -550.36987    512.42522   -37.944657    436.70128   -550.36987            0   -11.555967            0            0            0            0            0            0 
10308000    1037.4647    43419.978    334.08377   -552.86078    508.87437   -43.986407    612.97343   -552.86078            0   -12.061027            0            0            0            0            0            0 
10309000    1004.2394     44755.87     347.9995   -526.57993    530.07073    3.4908009    658.97636   -526.57993            0   -11.701025            0            0            0            0            0            0 
10310000    969.14595    45688.164    335.53448   -514.87643    511.08408   -3.7923442    641.96414   -514.87643            0   -11.462259            0            0            0            0            0            0 
10311000    969.08785    43129.956    326.29764   -559.68234    497.01459   -62.667754    546.89449   -559.68234            0    -12.14213            0            0            0            0            0            0 
10312000    901.89478     45654.51    349.77391   -523.38689    532.77349    9.3866041    609.88997   -523.38689            0   -11.470708            0            0            0            0            0            0 
10313000    793.51419    44397.799    349.83424   -559.43383    532.86539   -26.568447     487.2291   -559.43383            0   -11.795394            0            0            0            0            0            0 
10314000    908.96987    45315.832    337.72874   -528.14976    514.42637   -13.723382     587.0011   -528.14976            0   -11.556437            0            0            0            0            0            0 
10315000    943.70611    44120.573    338.87505   -545.06044    516.17243   -28.888011    578.34281   -545.06044            0   -11.869509            0            0            0            0            0            0 
10316000    956.04042    43291.918    342.04474   -559.34607    521.00048   -38.345585    565.26796   -559.34607            0   -12.096705            0            0            0            0            0            0 
10317000    835.89799    43919.899    331.93118    -553.0883    505.59556   -47.492745    487.92222    -553.0883            0   -11.923742            0            0            0            0            0            0 
10318000    862.07131    45085.167    359.75913   -536.59776    547.98292    11.385156    578.21507   -536.59776            0   -11.615562            0            0            0            0            0            0 
10319000    912.43465     44843.03    352.95147   -540.88501    537.61354   -3.2714699    593.45131   -540.88501            0   -11.678282            0            0            0            0            0            0 
10320000    806.48254     43987.06    343.07301   -557.57369    522.56673   -35.006958    482.35656   -557.57369            0   -11.905536            0            0            0            0            0            0 
10321000    941.03365    45003.898    325.09866   -526.83827     495.1883   -31.649971      585.984   -526.83827            0   -11.636538            0            0            0            0            0            0 
10322000    944.53233    44790.284    323.98227   -529.01384    493.48782   -35.526014    581.46173   -529.01384            0   -11.692034            0            0            0            0            0            0 
10323000    868.10347    43367.585    349.35011   -569.32823    532.12797   -37.200262    511.85066   -569.32823            0   -12.075598            0            0            0            0            0            0 
10324000    842.03739    44282.302    343.29514   -553.82515    522.90507   -30.920084    512.87773   -553.82515            0   -11.826159            0            0            0            0            0            0 
10325000    714.99989    44821.883    330.23516   -553.61531     503.0122   -50.603111    416.77887   -553.61531            0   -11.683792            0            0            0            0            0            0 
10326000    852.79034     44190.85    355.13591   -551.58161    540.94087   -10.640738    538.96406   -551.58161            0   -11.850633            0            0            0            0            0            0 
10327000    1101.2719    43977.825    331.44472   -530.45498    504.85459    -25.60039    680.72395   -530.45498            0   -11.908037            0            0            0            0            0            0 
10328000    733.65313    44465.482    351.23415   -558.51356    534.99773   -23.515823    452.24608   -558.51356            0    -11.77744            0            0            0            0            0            0 
10329000    1037.8852    45547.962    336.69623   -512.72576    512.85365   0.12789846    689.56423   -512.72576            0   -11.497541            0            0            0            0            0            0 
10330000    898.84039    43336.527    350.45012   -562.05768     533.8035   -28.254178    539.82984   -562.05768            0   -12.084253            0            0            0            0            0            0 
10331000    794.74521    45842.404    332.44152   -530.60654     506.3729   -24.233635    507.10475   -530.60654            0   -11.423693            0            0            0            0            0            0 
10332000    752.26099    45487.923    345.42039   -545.49752    526.14225   -19.355275    479.69068   -545.49752            0   -11.512716            0            0            0            0            0            0 
10333000    869.63631    44072.995    355.07008   -553.82794    540.84059   -12.987349    545.97958   -553.82794            0   -11.882323            0            0            0            0            0            0 
10334000    811.94997    44500.056    342.49261   -551.70271    521.68266   -30.020053    496.92547   -551.70271            0    -11.76829            0            0            0            0            0            0 
10335000    910.95362    45210.064    324.08429   -529.66987    493.64323   -36.026641    564.60372   -529.66987            0   -11.583473            0            0            0            0            0            0 
10336000    930.68926    44075.556    350.31967   -545.77319     533.6048   -12.168387    586.07567   -545.77319            0   -11.881632            0            0            0            0            0            0 
10337000    945.41805    43635.297    340.97793   -555.83486    519.37551   -36.459352    565.18205   -555.83486            0   -12.001512            0            0            0            0            0            0 
10338000    1047.4008    43094.062    348.99451   -557.45647    531.58633   -25.870144    632.40311   -557.45647            0   -12.152244            0            0            0            0            0            0 
10339000    941.05105    45296.974    337.32166   -525.99321    513.80631   -12.186903    609.48073   -525.99321            0   -11.561248            0            0            0            0            0            0 
10340000     971.8587    42917.974     354.5494   -565.44392     540.0475    -25.39642    582.90416   -565.44392            0   -12.202103            0            0            0            0            0            0 
10341000    932.10908    44349.818    348.42558   -546.53884    530.71974   -15.819104    587.06588   -546.53884            0   -11.808156            0            0            0            0            0            0 
10342000    942.85456    44380.421    359.17855   -542.18557     547.0986    4.9130223    615.16896   -542.18557            0   -11.800013            0            0            0            0            0            0 
10343000    894.98043    44294.882    333.02933   -549.24825    507.26826   -41.979988    536.17327   -549.24825            0     -11.8228            0            0            0            0            0            0 
10344000    899.75771    45329.205    347.64001   -533.64597    529.52316   -4.1228049    590.68899   -533.64597            0   -11.553027            0            0            0            0            0            0 
10345000    900.74393    44832.563    338.53817   -535.90402    515.65929   -20.244726    568.69493   -535.90402            0   -11.681008            0            0            0            0            0            0 
10346000    951.23516    43631.515    364.99738   -557.13735     555.9618   -1.1755514    604.11525   -557.13735            0   -12.002552            0            0            0            0            0            0 
10347000    1027.5648    43668.007    348.58684   -546.81322    530.96537   -15.847853    638.55993   -546.81322            0   -11.992522            0            0            0            0            0            0 
10348000    768.67501    45997.619    346.29301    -527.4677    527.47141 0.0037065554     515.6525    -527.4677            0   -11.385145            0            0            0            0            0            0 
10349000    853.36381    45636.221    328.70372   -524.04063    500.67951   -23.361116    544.60155   -524.04063            0   -11.475305            0            0            0            0            0            0 
10350000    885.69714      44426.1    337.40834   -546.68046    513.93834   -32.742122    541.10911   -546.68046            0    -11.78788            0            0            0            0            0            0 
10351000    1124.2428    44021.484    353.34216   -533.96755    538.20863    4.2410825    726.01415   -533.96755            0   -11.896226            0            0            0            0            0            0 
10352000     988.3335    42950.195    312.34033   -559.40599     475.7549   -83.651094    535.42573   -559.40599            0   -12.192949            0            0            0            0            0            0 
10353000    954.71787    45441.434    347.27359   -516.53637    528.96503     12.42866    645.13614   -516.53637            0   -11.524494            0            0            0            0            0            0 
[...]
14939000    831.33355    45010.476    348.78052   -541.74517    531.26038   -10.484793    535.22884   -541.74517            0   -11.634837            0            0            0            0            0            0 
14940000    948.03145    44491.612    326.35157   -535.72349    497.09673   -38.626762    576.51721   -535.72349            0   -11.770523            0            0            0            0            0            0 
14941000     1054.826    43026.867    350.60511   -554.01627    534.03958   -19.976695    641.92952   -554.01627            0   -12.171222            0            0            0            0            0            0 
14942000    926.09961    46127.151    350.85697   -519.80511     534.4232     14.61809    637.62122   -519.80511            0   -11.353173            0            0            0            0            0            0 
14943000    970.49468    44938.878    345.38813   -527.82956     526.0931   -1.7364602    634.31357   -527.82956            0   -11.653374            0            0            0            0            0            0 
14944000    825.43132    44547.439    348.16171   -545.62471     530.3178   -15.306904    520.95825   -545.62471            0   -11.755772            0            0            0            0            0            0 
14945000    1010.2246     43935.84     340.9766   -534.75554    519.37349   -15.382057    631.92862   -534.75554            0   -11.919416            0            0            0            0            0            0 
14946000    779.44408    46102.434    325.58747   -532.29107    495.93287   -36.358204    487.70625   -532.29107            0    -11.35926            0            0            0            0            0            0 
14947000    956.08458    43308.917    328.34973   -554.94062    500.14032   -54.800292    549.07815   -554.94062            0   -12.091957            0            0            0            0            0            0 
14948000    1042.7573     43428.17    360.06307   -552.98972    548.44588   -4.5438379    655.89203   -552.98972            0   -12.058752            0            0            0            0            0            0 
14949000    818.15581    44694.374    348.71363   -547.88813    531.15849   -16.729633      516.562   -547.88813            0   -11.717124            0            0            0            0            0            0 
14950000     889.5509    43633.577    327.55705   -558.92855     498.9329   -59.995645    506.07093   -558.92855            0   -12.001985            0            0            0            0            0            0 
14951000    816.25443    44395.545    321.17162   -549.47568    489.20666    -60.26902    468.22592   -549.47568            0   -11.795993            0            0            0            0            0            0 
14952000    965.56812    44200.411    337.21222   -546.37524    513.63961   -32.735629    589.68664   -546.37524            0   -11.848069            0            0            0            0            0            0 
14953000    949.82849    43428.276    354.93778   -557.64681    540.63907   -17.007737    584.57265   -557.64681            0   -12.058723            0            0            0            0            0            0 
14954000    720.37956    45069.611    353.21553    -554.2444    538.01576   -16.228646    457.27255    -554.2444            0   -11.619571            0            0            0            0            0            0 
14955000    910.76765    44363.003    343.79276   -548.75321    523.66305   -25.090164    564.16639   -548.75321            0   -11.804646            0            0            0            0            0            0 
14956000    747.02572    44515.699    334.71965   -560.03084    509.84294   -50.187899    434.79301   -560.03084            0   -11.764154            0            0            0            0            0            0 
14957000     843.0014    44646.982    329.74273   -544.88048    502.26213   -42.618349    506.28552   -544.88048            0   -11.729562            0            0            0            0            0            0 
14958000    921.60223    44182.411    353.73156   -549.23242    538.80177   -10.430652    583.40849   -549.23242            0   -11.852896            0            0            0            0            0            0 
14959000    978.00562    44316.162    348.55847    -543.4894    530.92215   -12.567249    619.52342    -543.4894            0   -11.817123            0            0            0            0            0            0 
14960000    902.62709    45090.686    343.89688   -528.76033    523.82164   -4.9386935    588.63014   -528.76033            0    -11.61414            0            0            0            0            0            0 
14961000    815.74555    45878.528    337.12414   -531.52277    513.50544   -18.017327     527.7909   -531.52277            0   -11.414698            0            0            0            0            0            0 
14962000    842.99688    43848.673     323.7696   -560.79329     493.1639   -67.629389    471.45693   -560.79329            0    -11.94311            0            0            0            0            0            0 
14963000    843.69161    44832.349    330.31546   -541.79429     503.1345    -38.65979    512.97432   -541.79429            0   -11.681064            0            0            0            0            0            0 
14964000    835.78828    45149.533    349.28011    -542.3797    532.02135   -10.358344     539.9745    -542.3797            0   -11.599002            0            0            0            0            0            0 
14965000    886.83284    44238.493    314.20244     -545.569    478.59125   -66.977749     505.1829     -545.569            0    -11.83787            0            0            0            0            0            0 
14966000    925.56401    44931.771    321.70146    -537.0315    490.01371   -47.017785    559.48931    -537.0315            0   -11.655217            0            0            0            0            0            0 
14967000    929.34812    44882.916    337.26986   -534.65845     513.7274   -20.931047    587.39356   -534.65845            0   -11.667904            0            0            0            0            0            0 
14968000    737.27313     46197.41    343.47639   -530.31486    523.18116   -7.1336984    489.59806   -530.31486            0   -11.335907            0            0            0            0            0            0 
14969000    1010.3014    43847.197    359.88392   -549.25593      548.173   -1.0829374    644.97087   -549.25593            0   -11.943512            0            0            0            0            0            0 
14970000    948.71254      44601.6    348.31416   -537.77984    530.55002    -7.229819    609.87789   -537.77984            0   -11.741497            0            0            0            0            0            0 
14971000    852.10707    44963.227    352.36941    -542.1016    536.72695   -5.3746503     553.3882    -542.1016            0   -11.647063            0            0            0            0            0            0 
14972000    695.67841    44905.397    338.89505   -560.91721    516.20289   -44.714321    410.88487   -560.91721            0   -11.662063            0            0            0            0            0            0 
14973000    930.76582    44232.037    347.39692   -548.89298    529.15288   -19.740107    580.67728   -548.89298            0   -11.839598            0            0            0            0            0            0 
14974000    859.78068    44607.513    322.30861   -548.67166    490.93851   -57.733148    501.60132   -548.67166            0    -11.73994            0            0            0            0            0            0 
14975000    797.52543    43913.312    324.40514   -560.52125    494.13194   -66.389305     444.3704   -560.52125            0    -11.92553            0            0            0            0            0            0 
14976000    954.40386    43698.263    330.77569   -550.17114    503.83553    -46.33561    561.90057   -550.17114            0   -11.984219            0            0            0            0            0            0 
14977000    920.09205      44637.9    344.22887   -535.64155    524.32733   -11.314217    587.66385   -535.64155            0   -11.731949            0            0            0            0            0            0 
14978000    924.88266    45488.152    343.41514    -527.8477    523.08786   -4.7598426     608.8055    -527.8477            0   -11.512658            0            0            0            0            0            0 
14979000    838.62443    43886.903    342.36244   -558.28476    521.48439   -36.800373    499.95739   -558.28476            0   -11.932707            0            0            0            0            0            0 
14980000    1151.4007     45081.24    343.04085   -513.13705    522.51775    9.3807009    766.38482   -513.13705            0   -11.616574            0            0            0            0            0            0 
14981000    912.49484    44271.875    346.80134    -547.4229    528.24569   -19.177206     569.9841    -547.4229            0   -11.828944            0            0            0            0            0            0 
14982000    945.90352    43754.529    356.34881   -554.99934    542.78834      -12.211    591.38415   -554.99934            0   -11.968808            0            0            0            0            0            0 
14983000    753.44211    43797.779    334.93875   -566.40977    510.17668   -56.233093     425.0248   -566.40977            0   -11.956989            0            0            0            0            0            0 
14984000    786.82533    45002.205    343.30122      -551.94    522.91434   -29.025663    487.37646      -551.94            0   -11.636975            0            0            0            0            0            0 
14985000    828.77002    43978.087    334.59859   -557.70309    509.65854   -48.044549    483.50806   -557.70309            0   -11.907966            0            0            0            0            0            0 
14986000    1038.1154    44720.429    357.61376   -527.92259    544.71511    16.792518    693.85306   -527.92259            0   -11.710298            0            0            0            0            0            0 
14987000    1011.7543    44513.354    329.37608   -530.95474    501.70364   -29.251094     627.5612   -530.95474            0   -11.764774            0            0            0            0            0            0 
14988000    871.43485     45960.12     340.2864   -518.88438    518.32217  -0.56220205     583.5442   -518.88438            0   -11.394434            0            0            0            0            0            0 
14989000    1003.9351    43422.675    352.52021   -554.29389    536.95665    -17.33724    618.42992   -554.29389            0   -12.060278            0            0            0            0            0            0 
14990000    952.08365    45208.328     330.8394   -521.11807    503.93256   -17.185503    610.53952   -521.11807            0   -11.583918            0            0            0            0            0            0 
14991000    841.90581    44343.512    336.57525   -551.08039    512.66938   -38.411008    506.05338   -551.08039            0   -11.809835            0            0            0            0            0            0 
14992000    857.17827    44455.692    329.94941   -545.52949    502.57694   -42.952549    512.79099   -545.52949            0   -11.780033            0            0            0            0            0            0 
14993000    878.39364     45482.29    349.46465   -529.88743    532.30243    2.4150065    585.06454   -529.88743            0   -11.514142            0            0            0            0            0            0 
14994000    868.51315     44076.33    357.08457   -557.91662    543.90905   -14.007563    544.27969   -557.91662            0   -11.881424            0            0            0            0            0            0 
14995000    908.10604    46275.612    333.86639   -513.22505    508.54326   -4.6817912    608.18293   -513.22505            0    -11.31675            0            0            0            0            0            0 
14996000    1019.3201    43478.271    317.98531   -543.33944    484.35329   -58.986153    587.35042   -543.33944            0   -12.044857            0            0            0            0            0            0 
14997000    1159.4566    44716.406     363.8929   -518.47168    554.27945    35.807774    791.93918   -518.47168            0   -11.711351            0            0            0            0            0            0 
14998000    848.55038    44617.701    338.67015    -552.6723    515.86032   -36.811974    515.34265    -552.6723            0    -11.73726            0            0            0            0            0            0 
14999000    754.41813    44243.771    326.52649   -559.25974    497.36317   -61.896565    424.89174   -559.25974            0   -11.836458            0            0            0            0            0            0 
15000000    945.36661    44948.879    340.24725   -534.89286    518.26255   -16.630307    603.08898   -534.89286            0   -11.650781            0            0            0            0            0            0 
Loop time of 1807.63 on 8 procs for 5000000 steps with 512 atoms

Pair  time (%) = 1037.8 (57.412)
Bond  time (%) = 0.46642 (0.0258029)
Neigh time (%) = 35.7149 (1.97579)
Comm  time (%) = 565.835 (31.3026)
Outpt time (%) = 0.253216 (0.0140082)
Other time (%) = 167.565 (9.26986)

Nlocal:    64 ave 70 max 56 min
Histogram: 1 0 1 0 0 1 2 2 0 1
Nghost:    1505.25 ave 1523 max 1493 min
Histogram: 2 1 0 1 2 0 0 0 0 2
Neighs:    7363 ave 8172 max 6119 min
Histogram: 1 0 0 0 1 0 3 2 0 1

Total # of neighbors = 58904
Ave neighs/atom = 115.047
Ave special neighs/atom = 0
Neighbor list builds = 84767
Dangerous builds = 0

Averages
Group Pressure(MPa) Volume(m3) Temperature(K) PE(J) KE(J) ET(J) ET^2(J) H(J) H^2(J^2) V^2(m6) V*H(m3*J) Hconf(J) Uext*Hconf(J^2) V*Hconf(m3*J) Uext(J)
Block1 90.407415871955222997 4.4522322446617091445e-26 340.15084714896323703 -3.7781377568788405247e-18 3.5997098307653456065e-18 -1.7842792611349448491e-19 5.7961872248699224671e-38 3.8422091062740682026e-18 1.50123847030991099e-35 1.9830168361667457727e-51 1.7100010293561184007e-43 2.4249927550872818134e-19 -8.9273027040033811866e-37 1.0727177951141853249e-44 -3.7781377568788405247e-18
Block2 89.886726025384902528 4.4581544123912964184e-26 339.83252903921680854 -3.7745260672978130355e-18 3.5963411699533288473e-18 -1.7818489734449157894e-19 5.8345529678191204339e-38 3.8245831473316426596e-18 1.4884346571553622388e-35 1.9883554807335765765e-51 1.7044758980459149286e-43 2.2824197737831718259e-19 -8.3771244001439353989e-37 1.0118643151471712759e-44 -3.7745260672978130355e-18
Block3 89.403665508550844265 4.4548532841747097457e-26 339.87877444244509206 -3.782083944447523153e-18 3.5968305705649173489e-18 -1.8525337388259862999e-19 6.184773740709973046e-38 3.7925597778476506067e-18 1.4642110710070035911e-35 1.9854420482713021465e-51 1.6888172250056802075e-43 1.9572920728273089856e-19 -7.1823554150129654729e-37 8.6425172488810427817e-45 -3.782083944447523153e-18
Block4 90.260112050293017205 4.4537611520604236297e-26 340.44065481662255479 -3.7776331080983046219e-18 3.6027767745023609822e-18 -1.7485633359594096744e-19 5.6882440240936688637e-38 3.8403245856836555143e-18 1.4991155718643083091e-35 1.9844100513374472128e-51 1.709588848266958171e-43 2.3754781118129366545e-19 -8.7658604599562180088e-37 1.0503570343108468607e-44 -3.7776331080983046219e-18
Block5 89.408368604859234097 4.4571033278523397005e-26 340.03247970362474462 -3.7795811269411783676e-18 3.5984571851811962939e-18 -1.8112394175998549229e-19 5.7945485105306468987e-38 3.7993242011971813279e-18 1.4689571981763155272e-35 1.9873549021800032356e-51 1.6926433094117913627e-43 2.008670160159930989e-19 -7.3743323812521356592e-37 8.879234941698419641e-45 -3.7795811269411783676e-18
Ave_blocks 89.87325761220863285 4.4552208842280958426e-26 340.06705703017451015 -3.7783924007327324028e-18 3.5988231061934298158e-18 -1.7956929453930224997e-19 5.8596612936046661331e-38 3.8198001636668396622e-18 1.4843913937025801847e-35 1.9857158637378151669e-51 1.7011052620172927336e-43 2.2097705747341263907e-19 -8.1253950720737281476e-37 9.7742287272602999053e-45 -3.7783924007327324028e-18
Stdev_blocks 0.41756468573063831862 2.1608838812442396104e-29 0.2182866889856450443 2.4750946658200363211e-21 2.3100596304640266237e-21 3.46862982434696118e-21 1.6969445688916726665e-39 2.0530919118604130587e-20 1.5247512634792331919e-37 1.9348847853726069341e-54 8.7757346693708404478e-46 1.9143889445469710638e-20 7.1694328620423270948e-38 8.5328277352810782005e-46 2.4750946658200363211e-21






Properties
Group rho(kg/m3) Cp(J/K) Cp_conf(J/K) Cp_id(J/K) Cp2(J/K) kT(1/Pa) aP(1/K) aP2(1/K) Cv(J/K) uJT(K/Pa) sos(m/s) Cv2(J/K) uJT2(K/Pa) sos2(m/s) CvNVT(J/K)
Block1 306.34597232733972305 1.5638325300799277137e-19 3.6897063429795389805e-21 3.1872577012058146122e-20 3.5562283355037685102e-20 3.728735656882442909e-09 -0.00089943722381111276473 -0.00097653267335066451342 1.5309754106693177638e-19 -3.7180243792813421451e-07 945.63628549014208602 3.1689159998619688504e-20 -1.6678128112039908747e-06 991.18009081142952255 1.6354442382026916746e-20
Block2 305.93902540186684291 1.6112704278483975999e-19 4.6547997143565305507e-21 3.1859818947063174366e-20 3.6514618661419703412e-20 4.0225498346963706587e-09 -0.00081921418865818322608 -0.0007981698984406690239 1.5859941248882659269e-19 -3.5371375395374593396e-07 908.58439829176438707 3.4115181884377682124e-20 -1.5520913759907330216e-06 932.59135046253720702 1.6680069428264797225e-20
Block3 306.16573184647569406 1.6214328322528526591e-19 2.430635262577526289e-21 3.1861671363857319608e-20 3.4292306626434842888e-20 4.163066070277542097e-09 -0.0010028320023749265864 -0.0010827819591991405795 1.5848564695668518483e-19 -3.6839338659181867042e-07 895.92070049300900791 3.0028218536493160931e-20 -1.7771637304902370912e-06 946.56103655528170293 1.7260681690098723029e-20
Block4 306.24080848768460328 1.518981322834430198e-19 1.6181802083771736009e-21 3.1884207502381039933e-20 3.3502387710758213534e-20 3.8750960643499226184e-09 -0.0011225231127870991584 -0.0010697938591199863956 1.4696779704007616789e-19 -4.0525693331829942622e-07 933.23787648676352546 2.9024367307766840556e-20 -1.8135503963483386375e-06 986.24254057361599735 1.644057011079911807e-20
Block5 306.0111726589101977 1.5955773838894584408e-19 2.439171387340091089e-21 3.1867830859151751257e-20 3.430700224649184385e-20 3.717615482763326245e-09 -0.0010607751158888667747 -0.0010346479933423633098 1.5497045803184665822e-19 -3.8009886667495538307e-07 951.33527830964249006 2.9942910458670481357e-20 -1.7562520591696110134e-06 1003.5603724863387924 1.5748325666875384469e-20
Ave_blocks 306.14054214445542357 1.5822188993810134667e-19 2.9664985831261721772e-21 3.1869221136902286257e-20 3.4835719720028456554e-20 3.9014126217939208229e-09 -0.0009809563287040377888 -0.00099238527669056469938 1.5442417111687327119e-19 -3.7585307569339070446e-07 926.94290781426423109 3.0959967637185569491e-20 -1.7133740746405823818e-06 972.02707817784062172 1.6496817855612986704e-20
Stdev_blocks 0.14848224274036753156 3.7140874005579327615e-21 1.0729935771510141191e-21 8.7542694423844859213e-24 1.067633886234322966e-21 1.7171373572065762298e-10 0.00010926721609978804362 0.00010384671804393368695 4.2798158270527785749e-21 1.6998928078993573769e-08 21.370395208676953303 1.796452547211533399e-21 9.3841222062909531697e-08 27.447993771392244611 4.9004984183067017832e-22






