LAMMPS (28 Oct 2012)
Scanning data file ...
Reading data file ...
  orthogonal box = (0 0 0) to (100 100 100)
  2 by 2 by 2 MPI processor grid
  512 atoms
Finding 1-2 1-3 1-4 neighbors ...
  0 = max # of 1-2 neighbors
  0 = max # of 1-3 neighbors
  0 = max # of 1-4 neighbors
  1 = max # of special neighbors
WARNING: Resetting reneighboring criteria during minimization (min.cpp:173)
Setting up minimization ...
Memory usage per processor = 4.05499 Mbytes
Step Temp E_pair E_mol TotEng Press 
       0       440.15    1409.7233            0    2080.1572    443.16352 
     701       440.15   -217.27527            0    453.15855    30.418622 
Loop time of 0.056762 on 8 procs for 701 steps with 512 atoms

Minimization stats:
  Stopping criterion = energy tolerance
  Energy initial, next-to-last, final = 
         1409.72334813     -217.256630745     -217.275265106
  Force two-norm initial, final = 5034.49 0.337455
  Force max component initial, final = 2457.89 0.147661
  Final line search alpha, max atom move = 0.254892 0.0376377
  Iterations, force evaluations = 701 710

Pair  time (%) = 0.00893211 (15.7361)
Bond  time (%) = 6.00517e-05 (0.105796)
Neigh time (%) = 0.00313699 (5.52657)
Comm  time (%) = 0.0231569 (40.7964)
Outpt time (%) = 0 (0)
Other time (%) = 0.021476 (37.8351)

Nlocal:    64 ave 74 max 52 min
Histogram: 1 0 0 1 1 2 0 2 0 1
Nghost:    235.125 ave 266 max 224 min
Histogram: 4 0 2 0 0 1 0 0 0 1
Neighs:    316.25 ave 371 max 226 min
Histogram: 1 0 0 1 1 1 0 1 0 3

Total # of neighbors = 2530
Ave neighs/atom = 4.94141
Ave special neighs/atom = 0
Neighbor list builds = 60
Dangerous builds = 0
Setting up run ...
Memory usage per processor = 3.36354 Mbytes
Step Temp E_pair E_mol TotEng Press Volume 
     701       440.15   -217.27527            0    453.15855    30.418622      1000000 
 5000701    430.15932   -424.11188            0    231.10419     888.5292    53808.734 
Loop time of 1587.29 on 8 procs for 5000000 steps with 512 atoms

Pair  time (%) = 874.157 (55.0724)
Bond  time (%) = 0.473012 (0.0298)
Neigh time (%) = 37.3359 (2.35218)
Comm  time (%) = 512.13 (32.2645)
Outpt time (%) = 5.18858e-05 (3.26884e-06)
Other time (%) = 163.191 (10.2812)

Nlocal:    64 ave 75 max 56 min
Histogram: 1 0 1 1 4 0 0 0 0 1
Nghost:    1326.12 ave 1370 max 1305 min
Histogram: 2 0 2 2 1 0 0 0 0 1
Neighs:    6137.38 ave 7530 max 5264 min
Histogram: 1 0 3 1 1 1 0 0 0 1

Total # of neighbors = 49099
Ave neighs/atom = 95.8965
Ave special neighs/atom = 0
Neighbor list builds = 96715
Dangerous builds = 14
Setting up run ...
Memory usage per processor = 3.96847 Mbytes
Step Press Volume Temp PotEng KinEng TotEng Enthalpy E_vdwl E_coul E_tail E_long E_bond E_angle E_dihed E_impro E_mol 
10000000     888.5292    53808.734    430.15932   -424.11188    655.21607    231.10419    928.37321   -424.11188            0   -9.7324264            0            0            0            0            0            0 
10001000    747.38295    51973.062    435.28536   -464.29991    663.02403    198.72412    765.22082   -464.29991            0   -10.076173            0            0            0            0            0            0 
10002000    828.63955    54114.447    477.45953   -435.25987    727.26347     292.0036      945.969   -435.25987            0   -9.6774443            0            0            0            0            0            0 
10003000    854.68388    53133.424    445.54194   -437.36925    678.64678    241.27752    903.56906   -437.36925            0   -9.8561227            0            0            0            0            0            0 
10004000    829.32737    52010.529    453.78742   -452.13223    691.20624    239.07401    868.13559   -452.13223            0   -10.068914            0            0            0            0            0            0 
10005000    987.28525    52739.436    443.81566   -423.42085    676.01732    252.59647    1011.9675   -423.42085            0   -9.9297525            0            0            0            0            0            0 
10006000    906.12818    53530.692    467.32405   -426.34427    711.82516     285.4809    992.88631   -426.34427            0   -9.7829774            0            0            0            0            0            0 
10007000    844.29945    54928.021    455.81285   -419.03225    694.29137    275.25912     951.6011   -419.03225            0   -9.5341055            0            0            0            0            0            0 
10008000    931.74864    52493.306    391.41903   -437.58756     596.2071    158.61954    871.92998   -437.58756            0   -9.9763109            0            0            0            0            0            0 
10009000    809.38945    53072.766    445.66122   -445.97414    678.82846    232.85432    859.33136   -445.97414            0   -9.8673874            0            0            0            0            0            0 
10010000    847.09545    52844.294    433.92441    -441.1301    660.95103    219.82093    872.66031    -441.1301            0    -9.910049            0            0            0            0            0            0 
10011000    856.75903    53522.407    449.59117   -438.53915    684.81454    246.27539    915.03527   -438.53915            0   -9.7844917            0            0            0            0            0            0 
10012000    827.19608    53530.869    453.54609   -434.60089    690.83866    256.23777     902.0238   -434.60089            0   -9.7829449            0            0            0            0            0            0 
10013000    1048.2882    52487.255    476.84195     -424.531    726.32276    301.79176    1104.2279     -424.531            0   -9.9774611            0            0            0            0            0            0 
10014000    908.67376    54929.415    463.81097   -409.59417    706.47405    296.87988    1024.8086   -409.59417            0   -9.5338635            0            0            0            0            0            0 
10015000    873.05458    55406.478    466.98944   -407.87333    711.31548    303.44215     1008.911   -407.87333            0   -9.4517747            0            0            0            0            0            0 
10016000    782.46151    55238.036    446.89545   -419.06797    680.70844    261.64047    891.98371   -419.06797            0   -9.4805967            0            0            0            0            0            0 
10017000    893.09967    51863.133    417.36803   -441.60301    635.73245    194.12944    869.64377   -441.60301            0    -10.09753            0            0            0            0            0            0 
10018000    934.28186    56294.745    434.46789   -387.54731    661.77886    274.23154     1041.278   -387.54731            0   -9.3026364            0            0            0            0            0            0 
10019000    871.48774    53673.482    427.05585   -419.47512    650.48888    231.01377    913.19056   -419.47512            0   -9.7569512            0            0            0            0            0            0 
10020000    884.06262    53844.042    424.85168   -423.73935    647.13151    223.39215    917.61127   -423.73935            0   -9.7260445            0            0            0            0            0            0 
10021000    907.43455    52724.048    429.35823    -429.7925    653.99585    224.20336    921.95352    -429.7925            0   -9.9326505            0            0            0            0            0            0 
10022000    764.63268    55111.811    441.48021   -430.30455    672.45998    242.15543    856.72836   -430.30455            0   -9.5023106            0            0            0            0            0            0 
10023000    955.50898    50319.243    453.34019   -461.87917    690.52502    228.64585    929.85046   -461.87917            0   -10.407341            0            0            0            0            0            0 
10024000    854.87583    54118.089    433.84861   -421.61358    660.83557      239.222    913.93857   -421.61358            0    -9.676793            0            0            0            0            0            0 
10025000    756.71387    54438.656    448.74802   -436.47363    683.53027    247.05664    847.83597   -436.47363            0   -9.6198103            0            0            0            0            0            0 
10026000    851.31777    52263.385    437.40197   -445.82734    666.24803    220.42069    869.30179   -445.82734            0     -10.0202            0            0            0            0            0            0 
10027000    1195.2367     54571.74     439.7056    -380.7381     669.7569    289.01879    1240.2752    -380.7381            0   -9.5963504            0            0            0            0            0            0 
10028000    967.93505    51968.627    435.86855   -429.56697    663.91233    234.34536    967.95216   -429.56697            0   -10.077033            0            0            0            0            0            0 
10029000    803.86315    53495.694    443.26261   -438.05309    675.17492    237.12183    864.27964   -438.05309            0   -9.7893775            0            0            0            0            0            0 
10030000    739.32558    52092.782    428.74699   -459.64591    653.06482     193.4189    755.09917   -459.64591            0   -10.053016            0            0            0            0            0            0 
10031000    806.07973    52975.581    426.05006   -444.86802    648.95687    204.08885    826.86163   -444.86802            0   -9.8854894            0            0            0            0            0            0 
10032000    964.55581    53282.516    455.43687   -425.30053    693.71868    268.41815    1017.9463   -425.30053            0   -9.8285439            0            0            0            0            0            0 
10033000    839.42456    54782.164    466.25841   -431.12155    710.20199    279.08044     949.7317   -431.12155            0   -9.5594899            0            0            0            0            0            0 
10034000    851.54907    53663.302     414.5875   -424.37789    631.49717    207.11928     873.5622   -424.37789            0   -9.7588022            0            0            0            0            0            0 
10035000    831.80997    52906.609    436.88916   -445.90852    665.46692    219.55839     861.3735   -445.90852            0   -9.8983767            0            0            0            0            0            0 
10036000    1013.7341    53699.898    419.88761   -402.39795    639.57027    237.17232    1031.0862   -402.39795            0   -9.7521516            0            0            0            0            0            0 
10037000    892.75859    52679.073    432.50363   -427.39046    658.78691    231.39644     917.2763   -427.39046            0   -9.9411306            0            0            0            0            0            0 
10038000     866.4644    52229.215    474.84569   -449.57253    723.28207    273.70954    933.70373   -449.57253            0   -10.026755            0            0            0            0            0            0 
10039000    787.90225    52719.142    450.54082    -450.6036    686.26104    235.65744    841.43972    -450.6036            0    -9.933575            0            0            0            0            0            0 
10040000    772.61366    52660.135    456.49021   -448.56071    695.32313    246.76242    840.12511   -448.56071            0   -9.9447057            0            0            0            0            0            0 
10041000    761.95807    52715.632    449.22081   -456.36166    684.25042    227.88877    813.68473   -456.36166            0   -9.9342363            0            0            0            0            0            0 
10042000     786.0222    53487.827    440.64313    -434.5334    671.18494    236.65154    849.80002    -434.5334            0   -9.7908174            0            0            0            0            0            0 
10043000    904.91353    53140.634    496.70257   -440.22681    756.57434    316.34753     1017.657   -440.22681            0   -9.8547854            0            0            0            0            0            0 
10044000    853.59692    52651.516    438.73226    -440.5411    668.27432    227.73322    883.18329    -440.5411            0   -9.9463337            0            0            0            0            0            0 
10045000    902.62168    53589.806    456.29121   -429.64334       695.02    265.37666    970.82274   -429.64334            0   -9.7721859            0            0            0            0            0            0 
10046000    924.58153    53025.385    419.17583   -418.29235    638.48609    220.19374    935.19191   -418.29235            0   -9.8762046            0            0            0            0            0            0 
10047000     927.0248    54077.522    448.60672   -419.18321    683.31504    264.13183    995.24402   -419.18321            0   -9.6840522            0            0            0            0            0            0 
10048000    1031.0616    53714.831    476.12498   -409.13209    725.23068    316.09859    1123.8072   -409.13209            0   -9.7494405            0            0            0            0            0            0 
10049000    944.16221    51826.343     460.9905   -445.44594    702.17794      256.732    970.36195   -445.44594            0   -10.104698            0            0            0            0            0            0 
10050000    787.38887    53592.577    447.12096   -441.59859    681.05193    239.45335    854.87079   -441.59859            0   -9.7716806            0            0            0            0            0            0 
10051000    903.58208    52992.591     400.0236    -435.6726    609.31353    173.64092    871.96763    -435.6726            0   -9.8823163            0            0            0            0            0            0 
10052000       786.29    53794.705    439.34833   -435.90548    669.21271    233.30723    850.18366   -435.90548            0   -9.7349645            0            0            0            0            0            0 
10053000     981.1173    51648.874    447.34265    -443.3325    681.38962    238.05711    977.07964    -443.3325            0   -10.139419            0            0            0            0            0            0 
10054000    773.84697    53556.326    432.03646   -441.30503    658.07532    216.77029    821.19437   -441.30503            0   -9.7782947            0            0            0            0            0            0 
10055000    803.20205    53392.741    420.77213   -441.86683    640.91755    199.05072    824.48679   -441.86683            0   -9.8082536            0            0            0            0            0            0 
10056000     846.7518    54663.868    431.10634   -419.04512    656.65856    237.61344    912.65791   -419.04512            0   -9.5801772            0            0            0            0            0            0 
10057000    749.79565    54106.345    434.29762   -429.98712     661.5195    231.53238    823.18529   -429.98712            0   -9.6788933            0            0            0            0            0            0 
10058000    752.14713    52839.062    429.57833   -449.60143     654.3311    204.72967    784.33691   -449.60143            0   -9.9110303            0            0            0            0            0            0 
10059000    1003.5359    52856.139    468.29167   -422.82425    713.29903    290.47478     1064.053   -422.82425            0   -9.9078283            0            0            0            0            0            0 
10060000    948.19901    55436.461    455.25871   -404.25121    693.44731     289.1961    1055.7998   -404.25121            0   -9.4466626            0            0            0            0            0            0 
10061000    855.32165    52361.772    419.69206   -446.13228    639.27239    193.14012    846.30028   -446.13228            0   -10.001372            0            0            0            0            0            0 
10062000     876.6451    51468.089    433.76649   -454.86518    660.71049    205.84531    863.86325   -454.86518            0   -10.175034            0            0            0            0            0            0 
10063000    722.42397    56275.375    476.90253   -419.00605    726.41504    307.40899    900.31579   -419.00605            0   -9.3058385            0            0            0            0            0            0 
10064000     787.7669    53628.924     425.9768   -441.17653    648.84528    207.66875    823.79924   -441.17653            0   -9.7650579            0            0            0            0            0            0 
10065000    879.23562    54850.008    431.97227   -411.12827    657.97754    246.84926    950.17719   -411.12827            0   -9.5476657            0            0            0            0            0            0 
10066000    950.43101    52307.473     446.4968   -439.09447    680.10121    241.00674    966.04384   -439.09447            0   -10.011754            0            0            0            0            0            0 
10067000    789.02952    55088.847     445.2015   -422.37479    678.12823    255.75344    889.67105   -422.37479            0   -9.5062717            0            0            0            0            0            0 
10068000    731.44135    53331.873    447.63995   -449.37175    681.84245    232.47071    801.37896   -449.37175            0   -9.8194478            0            0            0            0            0            0 
10069000    875.76035    53106.998    447.14323   -436.20849    681.08585    244.87736    923.16347   -436.20849            0   -9.8610271            0            0            0            0            0            0 
10070000    888.68842    53677.332    456.44711   -433.67541    695.25746    261.58206    957.27298   -433.67541            0   -9.7562513            0            0            0            0            0            0 
10071000    910.99696    53658.246     428.7906   -418.25107    653.13124    234.88016    947.78127   -418.25107            0   -9.7597216            0            0            0            0            0            0 
10072000    843.75798    52221.005    433.71693   -448.31702    660.63499    212.31797    854.91544   -448.31702            0   -10.028331            0            0            0            0            0            0 
10073000    709.76954    53346.303    400.12106   -443.52905    609.46197    165.93293    718.13441   -443.52905            0   -9.8167917            0            0            0            0            0            0 
10074000    863.61744    53670.018     430.1729   -417.77715    655.23675    237.45961    913.43212   -417.77715            0   -9.7575809            0            0            0            0            0            0 
10075000    872.44583    53055.709    421.22687   -436.67512    641.61022     204.9351    880.00149   -436.67512            0   -9.8705597            0            0            0            0            0            0 
10076000    965.83275    52071.688    427.92126   -436.27094    651.80706    215.53613    949.00126   -436.27094            0   -10.057088            0            0            0            0            0            0 
10077000    1052.3188    54834.405    437.02315   -389.94928    665.67102    275.72174    1117.2648   -389.94928            0   -9.5503826            0            0            0            0            0            0 
10078000    856.48062    52679.738    439.01036   -445.10067    668.69792    223.59725    881.61413   -445.10067            0   -9.9410051            0            0            0            0            0            0 
10079000     721.2314    55193.699    423.10664   -428.02034    644.47348    216.45314    797.00365   -428.02034            0   -9.4882124            0            0            0            0            0            0 
10080000    874.79702    53015.424    408.72402    -437.5592    622.56595    185.00675    861.37844    -437.5592            0   -9.8780601            0            0            0            0            0            0 
10081000    958.25771    53832.393    425.17135   -416.32132    647.61842     231.2971    983.61586   -416.32132            0   -9.7281492            0            0            0            0            0            0 
10082000    919.56835    53133.915    458.31561   -438.58744    698.10356    259.51612    972.09299   -438.58744            0   -9.8560316            0            0            0            0            0            0 
10083000    908.07793    53494.225    442.25962   -424.79783    673.64717    248.84934    957.29396   -424.79783            0   -9.7896464            0            0            0            0            0            0 
10084000    1015.7678     52676.36    418.17391   -418.71345    636.95996    218.24651     998.5905   -418.71345            0   -9.9416427            0            0            0            0            0            0 
10085000    997.48451    51868.573    434.49544    -431.7741    661.82082    230.04672    984.59381    -431.7741            0   -10.096471            0            0            0            0            0            0 
10086000     1006.672    52233.296    441.29087   -419.46936    672.17157    252.70221    1019.5538   -419.46936            0   -10.025972            0            0            0            0            0            0 
10087000    907.03608    53975.115    451.46497    -421.2026    687.66871    266.46611    980.45924    -421.2026            0   -9.7024257            0            0            0            0            0            0 
10088000    923.23319    52626.432    480.39111   -434.06244    731.72883    297.66639    1006.2502   -434.06244            0   -9.9510745            0            0            0            0            0            0 
10089000    929.89483    53769.138     431.8751   -424.55113    657.82953    233.27839    962.47191   -424.55113            0   -9.7395934            0            0            0            0            0            0 
10090000    925.95816    53844.561    426.75626   -423.43317    650.03254    226.59937    953.72439   -423.43317            0   -9.7259508            0            0            0            0            0            0 
10091000    948.29713     53489.78    438.81354   -421.30035    668.39813    247.09778    986.85828   -421.30035            0   -9.7904599            0            0            0            0            0            0 
10092000    912.15321    51915.381    433.99429   -441.41947    661.05748    219.63801    910.25892   -441.41947            0   -10.087368            0            0            0            0            0            0 
10093000    711.85388    54076.885    447.18996   -446.50762    681.15704    234.64942    796.05718   -446.50762            0   -9.6841663            0            0            0            0            0            0 
10094000    1013.1843    50416.421    471.61375   -455.63011     718.3592    262.72909     1007.695   -455.63011            0   -10.387281            0            0            0            0            0            0 
10095000    827.19943    55206.684    436.56062    -415.2358    664.96649     249.7307    915.73614    -415.2358            0   -9.4859808            0            0            0            0            0            0 
10096000    951.85592    53746.237    479.52585   -421.01665    730.41087    309.39422     1055.491   -421.01665            0   -9.7437434            0            0            0            0            0            0 
10097000    890.50597    54016.876    452.85534   -425.74266    689.78651    264.04385    965.56729   -425.74266            0   -9.6949247            0            0            0            0            0            0 
10098000    1055.8182    53044.804    444.69023   -411.13625    677.34947    266.21321    1082.9984   -411.13625            0   -9.8725889            0            0            0            0            0            0 
10099000    805.44162    52431.771     431.4256   -441.22579    657.14486    215.91907    831.81095   -441.22579            0   -9.9880195            0            0            0            0            0            0 
10100000    788.78551     53958.05    447.32504   -436.68922    681.36278    244.67357    865.38687   -436.68922            0   -9.7054943            0            0            0            0            0            0 
10101000    862.39112    54165.622    480.28725   -428.88015    731.57063    302.69048    983.93638   -428.88015            0   -9.6683011            0            0            0            0            0            0 
10102000    1046.2186    51925.786    451.77164   -432.97352    688.13582     255.1623    1047.4473   -432.97352            0   -10.085347            0            0            0            0            0            0 
10103000    945.12738    53968.537    446.32493   -413.62225    679.83943    266.21718     1010.104   -413.62225            0   -9.7036083            0            0            0            0            0            0 
10104000    811.78073    55053.854    426.03919   -415.27592    648.94031    233.66439    885.44638   -415.27592            0    -9.512314            0            0            0            0            0            0 
10105000    954.03632    51719.352    431.63757   -443.50189    657.46772    213.96583    933.57033   -443.50189            0   -10.125601            0            0            0            0            0            0 
10106000    891.38695    52585.141    448.06378   -449.73686    682.48803    232.75117    916.35613   -449.73686            0   -9.9588883            0            0            0            0            0            0 
10107000    868.64108    54156.241      422.713   -418.99146    643.87388    224.88242    910.94663   -418.99146            0    -9.669976            0            0            0            0            0            0 
10108000    842.29013    52514.742     441.0147   -444.18863    671.75092    227.56229    872.65011   -444.18863            0   -9.9722387            0            0            0            0            0            0 
10109000     786.8473    52908.394    425.32224   -443.79261    647.84825    204.05564    811.19855   -443.79261            0   -9.8980427            0            0            0            0            0            0 
10110000    972.95598     54125.04    432.03659   -405.45427    658.07552    252.62125     1020.632   -405.45427            0   -9.6755503            0            0            0            0            0            0 
10111000    1139.8205    51640.817    466.19513   -424.08636     710.1056    286.01924    1144.4503   -424.08636            0      -10.141            0            0            0            0            0            0 
10112000    665.34693    56552.115    434.61358   -422.16878    662.00076    239.83198    788.57992   -422.16878            0   -9.2602999            0            0            0            0            0            0 
10113000    890.93184    50322.608    450.19516   -467.32637    685.73454    218.40817    872.26627   -467.32637            0   -10.406646            0            0            0            0            0            0 
10114000    962.38851      54465.5    454.36478   -399.61936    692.08568    292.46632    1056.9141   -399.61936            0   -9.6150691            0            0            0            0            0            0 
10115000    873.92511    52645.512     473.6911   -449.56618    721.52342    271.95724    942.94015   -449.56618            0   -9.9474681            0            0            0            0            0            0 
10116000    847.82697    54543.521    437.50576   -421.01379    666.40612    245.39233    919.80587   -421.01379            0   -9.6013154            0            0            0            0            0            0 
10117000    698.80591    54176.586    405.89858   -437.70831    618.26225    180.55394    732.68744   -437.70831            0   -9.6663445            0            0            0            0            0            0 
10118000    905.64885    49256.147    420.11149   -489.12934    639.91128    150.78194    801.35514   -489.12934            0   -10.631963            0            0            0            0            0            0 
10119000    828.22942    55637.649    437.46772   -414.15223    666.34817    252.19594    924.23623   -414.15223            0   -9.4125032            0            0            0            0            0            0 
10120000    972.96626    51837.307    437.53268     -435.561    666.44713    230.88612    966.44273     -435.561            0   -10.102561            0            0            0            0            0            0 
10121000    935.78823    53433.335    434.13848    -416.7957     661.2771     244.4814    973.71345    -416.7957            0   -9.8008021            0            0            0            0            0            0 
10122000     1063.075    52455.432    430.56013   -416.67869    655.82658    239.14789    1052.4095   -416.67869            0   -9.9835141            0            0            0            0            0            0 
10123000    912.64174    53487.743    446.54202   -424.29822    680.17009    255.87187    967.79072   -424.29822            0   -9.7908327            0            0            0            0            0            0 
10124000    891.47114    53482.605    437.79523    -421.2071    666.84705    245.63994    940.97757    -421.2071            0   -9.7917734            0            0            0            0            0            0 
10125000    723.74925    56435.117    458.48158   -420.26108    698.35636    278.09528    873.77586   -420.26108            0   -9.2794978            0            0            0            0            0            0 
10126000    947.82163    51884.468    438.90214   -435.28868    668.53307     233.2444    950.44373   -435.28868            0   -10.093378            0            0            0            0            0            0 
10127000     938.1454    55472.315    453.84351   -405.17517    691.29168    286.11652    1045.0825   -405.17517            0   -9.4405569            0            0            0            0            0            0 
10128000     881.2555     53036.25    431.36149   -438.49046     657.0472    218.55674    900.18963   -438.49046            0   -9.8741812            0            0            0            0            0            0 
10129000    796.47213    53452.572    437.95426   -443.87922    667.08928    223.21005    844.10065   -443.87922            0   -9.7972749            0            0            0            0            0            0 
10130000     872.0063    51453.063    419.87946   -453.54036    639.55785     186.0175    840.36244   -453.54036            0   -10.178005            0            0            0            0            0            0 
10131000    941.35456     54158.29     447.5861   -414.56608    681.76043    267.19435    1010.7168   -414.56608            0   -9.6696101            0            0            0            0            0            0 
10132000    834.62015    51664.509    446.01681   -452.01229     679.3701    227.35781    856.22228   -452.01229            0    -10.13635            0            0            0            0            0            0 
10133000    858.06391    54629.351     449.1876   -417.69873    684.19982    266.50109    950.13181   -417.69873            0   -9.5862304            0            0            0            0            0            0 
10134000    1012.9404    52458.621    448.37057   -430.65059    682.95533    252.30474      1027.26   -430.65059            0   -9.9829072            0            0            0            0            0            0 
10135000    940.91018    54869.196    448.88267   -401.22267    683.73536    282.51268    1035.4393   -401.22267            0    -9.544327            0            0            0            0            0            0 
10136000    923.81939    52384.521    441.32964   -437.52114    672.23063    234.70949    940.48395   -437.52114            0   -9.9970285            0            0            0            0            0            0 
10137000    973.88799    54477.737    440.23567   -411.61757     670.5643    258.94673    1032.7026   -411.61757            0   -9.6129092            0            0            0            0            0            0 
10138000    1087.5225     52406.51    461.10651   -420.76362    702.35464    281.59102    1112.7792   -420.76362            0   -9.9928338            0            0            0            0            0            0 
10139000    1079.4541    53525.348    426.59607   -399.49591    649.78855    250.29264    1092.9278   -399.49591            0    -9.783954            0            0            0            0            0            0 
10140000    753.18111    52011.666     421.0644   -455.62113    641.36275    185.74162    757.05721   -455.62113            0   -10.068694            0            0            0            0            0            0 
10141000     978.8516    53710.592    410.92764   -410.91416    625.92249    215.00833    981.75639   -410.91416            0   -9.7502099            0            0            0            0            0            0 
10142000    917.95584    53414.415     436.7678   -425.02291    665.28206    240.25915    955.34166   -425.02291            0   -9.8042737            0            0            0            0            0            0 
10143000    770.31413     53687.64    472.43998   -444.93374    719.61771    274.68398    877.82389   -444.93374            0   -9.7543782            0            0            0            0            0            0 
10144000    1025.6361    53165.741    447.72309   -411.42005     681.9691    270.54905    1065.7942   -411.42005            0   -9.8501316            0            0            0            0            0            0 
10145000    1142.6844    50793.279     440.7096    -434.0876    671.28619    237.19858    1083.6625    -434.0876            0   -10.310213            0            0            0            0            0            0 
10146000    1194.8728    53849.984    421.66515   -380.54105     642.2778    261.73676    1200.1263   -380.54105            0   -9.7249712            0            0            0            0            0            0 
10147000    1000.5445    53256.023    459.83979   -415.78023    700.42519    284.64495    1061.7523   -415.78023            0   -9.8334332            0            0            0            0            0            0 
10148000    988.04625    51768.426     439.7147   -428.65485    669.77077    241.11591    987.08035   -428.65485            0   -10.116003            0            0            0            0            0            0 
10149000    866.71304    53263.053    439.73345    -435.6971    669.79932    234.10222    907.35364    -435.6971            0   -9.8321353            0            0            0            0            0            0 
10150000     711.5679     53908.23    445.89728   -446.00894    679.18803    233.17909     792.6111   -446.00894            0   -9.7144638            0            0            0            0            0            0 
10151000    878.01043     51034.93      410.992   -450.60202    626.02053    175.41851    828.91474   -450.60202            0   -10.261394            0            0            0            0            0            0 
10152000    821.08752    55606.117    453.72977   -408.61184    691.11844     282.5066    948.37424   -408.61184            0   -9.4178406            0            0            0            0            0            0 
10153000    714.82957    55060.214    446.01755   -435.87125    679.37123    243.49998    817.50579   -435.87125            0   -9.5112153            0            0            0            0            0            0 
10154000    1034.1715    52298.024    449.15229   -429.78938    684.14604    254.35665    1043.1327   -429.78938            0   -10.013563            0            0            0            0            0            0 
10155000    991.24008    53441.455    445.92032   -408.28109    679.22312    270.94203    1043.5035   -408.28109            0   -9.7993129            0            0            0            0            0            0 
10156000    932.76132    53174.478    438.75589   -426.02382    668.31032     242.2865    965.63844   -426.02382            0   -9.8485132            0            0            0            0            0            0 
10157000      898.016    52337.749    439.30264   -446.70765    669.14311    222.43546    907.88424   -446.70765            0   -10.005962            0            0            0            0            0            0 
10158000    958.21005    53216.718    451.94253   -431.77389    688.39612    256.62223    1000.2998   -431.77389            0    -9.840696            0            0            0            0            0            0 
10159000    779.61809    53601.218    407.76829   -438.19882    621.11019    182.91137    792.35348   -438.19882            0   -9.7701053            0            0            0            0            0            0 
10160000    906.18634    55002.006     467.5274    -414.9326     712.1349     297.2023    1024.0977    -414.9326            0   -9.5212809            0            0            0            0            0            0 
10161000    960.93136    51061.846    442.47949   -449.43977    673.98207    224.54231    940.13314   -449.43977            0   -10.255985            0            0            0            0            0            0 
10162000    798.70169    54756.536    439.99089   -424.53548    670.19146    245.65598    883.47352   -424.53548            0   -9.5639642            0            0            0            0            0            0 
10163000     869.4022    53592.072    425.12094   -426.89157    647.54164    220.65007    900.16214   -426.89157            0   -9.7717727            0            0            0            0            0            0 
10164000    894.58052    51366.024    422.32035   -455.90968     643.2758    187.36611    857.51496   -455.90968            0   -10.195252            0            0            0            0            0            0 
10165000    807.58464    55714.521    451.70872    -419.9294    688.03998    268.11058    924.30471    -419.9294            0   -9.3995162            0            0            0            0            0            0 
10166000    969.37548    51589.983    399.65203   -427.10215    608.74754    181.64539    910.99089   -427.10215            0   -10.150993            0            0            0            0            0            0 
10167000    887.79566    54374.919    440.61524   -418.47852    671.14247    252.66395    956.68805   -418.47852            0   -9.6310865            0            0            0            0            0            0 
10168000    972.37709    52447.373     442.6092   -431.03357    674.17965    243.14608    986.90871   -431.03357            0   -9.9850481            0            0            0            0            0            0 
10169000    741.81171    56649.774    417.22534   -407.42195     635.5151    228.09315     840.9623   -407.42195            0    -9.244336            0            0            0            0            0            0 
10170000    965.40715    51348.683    467.14465   -442.58039     711.5519    268.97152    991.93392   -442.58039            0   -10.198695            0            0            0            0            0            0 
10171000    800.10386    53819.747    438.44449   -441.79568    667.83599    226.04031    854.04648   -441.79568            0   -9.7304349            0            0            0            0            0            0 
10172000    989.95982    52732.768    437.23479   -424.38818    665.99338    241.60521    1002.9371   -424.38818            0    -9.931008            0            0            0            0            0            0 
10173000    1025.4482    52889.081    429.22324   -409.89103    653.79024    243.89921    1034.8612   -409.89103            0   -9.9016571            0            0            0            0            0            0 
10174000    872.87832    52204.431     442.5232   -442.57279    674.04865    231.47586    896.04009   -442.57279            0   -10.031515            0            0            0            0            0            0 
10175000    878.71647    51921.818     437.0545    -451.1643    665.71876    214.55446    879.94182    -451.1643            0   -10.086117            0            0            0            0            0            0 
10176000    926.36764    51168.781    429.37029   -452.82211    654.01423    201.19212    892.48859   -452.82211            0   -10.234552            0            0            0            0            0            0 
10177000    822.01182    53403.358     436.2005   -434.19566    664.41795    230.22229    870.43239   -434.19566            0   -9.8063036            0            0            0            0            0            0 
10178000    875.87116    52329.346    440.25245    -437.0483    670.58987    233.54157    901.98002    -437.0483            0   -10.007569            0            0            0            0            0            0 
10179000    917.60686    53994.318    451.10688   -416.65882    687.12326    270.46444    993.03556   -416.65882            0   -9.6989751            0            0            0            0            0            0 
10180000    793.45135    52694.172    417.55338    -436.3058    636.01478    199.70898    809.46877    -436.3058            0   -9.9382821            0            0            0            0            0            0 
10181000    763.08668     54022.56    411.92575    -429.9471    627.44281    197.49572    798.70396    -429.9471            0   -9.6939046            0            0            0            0            0            0 
10182000    795.71546    54303.697    433.34244   -441.98786    660.06458    218.07673     848.2545   -441.98786            0   -9.6437181            0            0            0            0            0            0 
10183000    864.64337    52061.988     441.2891   -451.45774    672.16888    220.71115    877.20952   -451.45774            0   -10.058962            0            0            0            0            0            0 
10184000    863.21317    54724.014    446.56794   -414.03342    680.20957    266.17616    955.10107   -414.03342            0    -9.569648            0            0            0            0            0            0 
10185000    897.63595     52080.64      428.979   -441.40012     653.4182    212.01808    893.81093   -441.40012            0   -10.055359            0            0            0            0            0            0 
10186000     892.6715    53691.162    424.38733   -421.93019    646.42421    224.49402    923.48305   -421.93019            0   -9.7537383            0            0            0            0            0            0 
10187000    866.39801    53781.443    422.71935   -434.97114    643.88355     208.9124    888.46925   -434.97114            0    -9.737365            0            0            0            0            0            0 
10188000    922.11672    50904.261    439.02108   -458.32684    668.71425    210.38741    894.95435   -458.32684            0   -10.287735            0            0            0            0            0            0 
10189000    884.40455    52828.076    442.56488   -429.01493    674.11213    245.09721    926.48077   -429.01493            0   -9.9130914            0            0            0            0            0            0 
10190000    882.42935    54234.628    428.30957   -417.11252    652.39854    235.28601    933.24917   -417.11252            0   -9.6559996            0            0            0            0            0            0 
10191000    845.15338    52135.507    452.27021   -449.20442    688.89524    239.69081    882.29718   -449.20442            0   -10.044777            0            0            0            0            0            0 
10192000    1073.9135    51822.928     467.4208   -427.51723    711.97254    284.45531    1096.1022   -427.51723            0   -10.105364            0            0            0            0            0            0 
10193000    909.53306    52052.377     429.6878   -438.76425    654.49786    215.73361    906.18792   -438.76425            0   -10.060819            0            0            0            0            0            0 
10194000    828.47356    54082.864    433.30449   -428.65392    660.00678    231.35285    884.80565   -428.65392            0   -9.6830957            0            0            0            0            0            0 
10195000    760.90283    53297.004    427.29824   -447.62622    650.85809    203.23187    794.66805   -447.62622            0   -9.8258721            0            0            0            0            0            0 
10196000    794.63747    53041.604    407.54619   -440.05143    620.77189    180.72046    795.41815   -440.05143            0   -9.8731845            0            0            0            0            0            0 
10197000    954.22072    50470.255    434.43267   -455.52421     661.7252      206.201    908.56173   -455.52421            0   -10.376202            0            0            0            0            0            0 
10198000    952.62191    54768.614    435.99648   -402.52037     664.1072    261.58682    1022.4879   -402.52037            0    -9.561855            0            0            0            0            0            0 
10199000    1109.7229    51139.078    441.41957   -431.60511    672.36762    240.76251     1068.406   -431.60511            0   -10.240496            0            0            0            0            0            0 
10200000    878.44066    54072.707     445.4752   -420.85104    678.54513    257.69409    950.42798   -420.85104            0   -9.6849144            0            0            0            0            0            0 
10201000    893.57224    53544.851    446.63513   -434.00704    680.31193    246.30489    944.09252   -434.00704            0   -9.7803904            0            0            0            0            0            0 
10202000    966.78781    53960.983    429.28706   -410.07665    653.88745     243.8108    1004.6395   -410.07665            0   -9.7049667            0            0            0            0            0            0 
10203000    947.57881    52792.718    430.65929   -424.80363    655.97761    231.17399     960.7411   -424.80363            0   -9.9197307            0            0            0            0            0            0 
10204000      962.411    52072.181    442.26933   -435.59011    673.66196    238.07185    968.94539   -435.59011            0   -10.056993            0            0            0            0            0            0 
10205000    843.05886    54975.747    453.07196    -419.0657    690.11647    271.05077    946.98575    -419.0657            0   -9.5258287            0            0            0            0            0            0 
10206000    865.99534    54509.758    460.78709   -422.89552     701.8681    278.97259    967.41196   -422.89552            0   -9.6072623            0            0            0            0            0            0 
10207000    971.05933    53416.857      432.497   -415.71621    658.77681     243.0606    999.54502   -415.71621            0   -9.8038255            0            0            0            0            0            0 
10208000    840.44101    55643.537    447.99284   -403.71086    682.37997    278.66911    960.69028   -403.71086            0   -9.4115071            0            0            0            0            0            0 
10209000    886.61221    51644.784    457.40281   -463.85297    696.71319    232.86023    900.64431   -463.85297            0   -10.140221            0            0            0            0            0            0 
10210000    834.53415    54540.867    442.29633   -423.39408    673.70308      250.309    914.11632   -423.39408            0   -9.6017825            0            0            0            0            0            0 
10211000    1055.5364    51815.418    439.97849   -430.22188    670.17256    239.95069    1037.5929   -430.22188            0   -10.106828            0            0            0            0            0            0 
10212000    814.25229    56210.027    435.42115   -402.75718    663.23086    260.47368    927.96969   -402.75718            0    -9.316657            0            0            0            0            0            0 
10213000     761.0206    53613.261    450.55668    -438.2606    686.28521    248.02461    843.06236    -438.2606            0   -9.7679106            0            0            0            0            0            0 
10214000    913.77972    51711.979    428.89752   -446.51279    653.29409    206.78131    895.92306   -446.51279            0   -10.127045            0            0            0            0            0            0 
10215000    850.46468    56168.279    433.35183   -403.64979    660.07889     256.4291    953.09297   -403.64979            0   -9.3235819            0            0            0            0            0            0 
10216000     895.5257    53394.055    433.94184   -425.96635    660.97757    235.01122    932.35487   -425.96635            0   -9.8080122            0            0            0            0            0            0 
10217000    871.45591    52373.482    408.39593   -433.39456     622.0662    188.67164    854.30144   -433.39456            0   -9.9991355            0            0            0            0            0            0 
10218000    890.01767    53046.708    452.84609   -445.40979    689.77242    244.36262    932.90861   -445.40979            0   -9.8722347            0            0            0            0            0            0 
10219000    848.46654    55225.064    415.37469   -409.53396     632.6962    223.16224    906.51797   -409.53396            0   -9.4828236            0            0            0            0            0            0 
10220000    932.23363    51892.673    421.22182    -442.7897    641.60252    198.81281    904.32853    -442.7897            0   -10.091782            0            0            0            0            0            0 
10221000    864.92746    54051.183    445.41186   -427.83523    678.44864    250.61342    932.41935   -427.83523            0   -9.6887712            0            0            0            0            0            0 
10222000     967.2698    51560.792    428.05297   -439.83763    652.00769    212.17005    939.51947   -439.83763            0    -10.15674            0            0            0            0            0            0 
10223000    913.10656    54903.765    450.50833   -415.49459    686.21156    270.71697    1001.8552   -415.49459            0   -9.5383176            0            0            0            0            0            0 
10224000    952.87993    52267.277     447.6439    -437.8612    681.84848    243.98728    970.33394    -437.8612            0   -10.019453            0            0            0            0            0            0 
10225000    1050.8166    49862.043    447.06869   -453.04646    680.97232    227.92586    992.06574   -453.04646            0    -10.50277            0            0            0            0            0            0 
10226000     983.0657    53830.916    439.14805   -409.82508    668.90764    259.08256    1030.8567   -409.82508            0    -9.728416            0            0            0            0            0            0 
10227000    876.19087    52605.697    461.37136   -444.28111    702.75805    258.47694    930.69069   -444.28111            0   -9.9549969            0            0            0            0            0            0 
10228000    871.29592    52259.106    436.66266   -448.89181    665.12191     216.2301    880.28433   -448.89181            0    -10.02102            0            0            0            0            0            0 
10229000    871.62809    52030.726     436.2413   -445.95555    664.48011    218.52456    879.92883   -445.95555            0   -10.065006            0            0            0            0            0            0 
10230000    977.32037    52261.892     436.6012   -436.94096    665.02829    228.08733    972.98732   -436.94096            0   -10.020486            0            0            0            0            0            0 
10231000    899.42492    53877.004    440.60011   -422.08665    671.11941    249.03276    955.74765   -422.08665            0   -9.7200941            0            0            0            0            0            0 
10232000    936.92018    53360.405    478.23459   -430.56623    728.44403     297.8778    1026.9954   -430.56623            0   -9.8141973            0            0            0            0            0            0 
10233000    796.10723    54441.687    427.76854   -422.27469    651.57445    229.29975    861.38992   -422.27469            0   -9.6192747            0            0            0            0            0            0 
10234000    755.18419    53481.352    418.29399   -443.80866    637.14286    193.33421    782.35572   -443.80866            0   -9.7920027            0            0            0            0            0            0 
10235000     1084.562    50211.324    460.05321   -450.27553    700.75026    250.47473    1044.6785   -450.27553            0    -10.42971            0            0            0            0            0            0 
10236000    961.48537    54027.283     454.9165   -412.09028    692.92605    280.83577    1038.4213   -412.09028            0   -9.6930572            0            0            0            0            0            0 
10237000    959.39085    52053.046    445.92761   -435.62588    679.23424    243.60836     971.9206   -435.62588            0    -10.06069            0            0            0            0            0            0 
10238000    781.62167    55567.732    431.63395   -416.27711    657.46221     241.1851    874.61004   -416.27711            0   -9.4243461            0            0            0            0            0            0 
10239000    1023.4726    51788.391      453.731   -434.59305    691.12031    256.52726    1029.5362   -434.59305            0   -10.112103            0            0            0            0            0            0 
10240000    891.03338    53939.294    441.67978   -428.92781    672.76396    243.83615    944.76692   -428.92781            0   -9.7088691            0            0            0            0            0            0 
10241000    1010.3381    52934.557    463.22554    -430.0676    705.58234    275.51474     1055.492    -430.0676            0   -9.8931507            0            0            0            0            0            0 
10242000    862.24822    53578.677    427.02666   -431.64055    650.44442    218.80387    892.55605   -431.64055            0   -9.7742157            0            0            0            0            0            0 
10243000    1047.3209    52239.358    417.26113   -423.73768    635.56963    211.83194    1009.7412   -423.73768            0   -10.024808            0            0            0            0            0            0 
10244000    1036.5633    55875.253    457.60057   -381.01815    697.01442    315.99627    1160.6744   -381.01815            0   -9.3724774            0            0            0            0            0            0 
10245000    685.73153    52144.955    430.19788   -468.38997    655.27481    186.88484    708.37042   -468.38997            0   -10.042957            0            0            0            0            0            0 
10246000    901.99997    51953.941    424.05852   -446.86796    645.92337    199.05541    882.49622   -446.86796            0   -10.079881            0            0            0            0            0            0 
10247000    974.53053    53809.309    467.06383   -413.64837    711.42879    297.78042    1062.5467   -413.64837            0   -9.7323224            0            0            0            0            0            0 
10248000    896.05171    54859.756    446.41057   -412.85866    679.96988    267.11122    984.01824   -412.85866            0   -9.5459692            0            0            0            0            0            0 
10249000    1004.2618    51407.101    450.75073   -446.90872    686.58078    239.67206     992.5871   -446.90872            0   -10.187105            0            0            0            0            0            0 
10250000    900.93391    53593.011    447.33256   -427.41754    681.37425     253.9567    958.12584   -427.41754            0   -9.7716014            0            0            0            0            0            0 
10251000    785.99397    55340.955    400.29006   -417.14527    609.71939    192.57412    826.94282   -417.14527            0   -9.4629655            0            0            0            0            0            0 
10252000     1065.775    51633.962     440.1061   -431.73009    670.36694    238.63686    1041.1957   -431.73009            0   -10.142347            0            0            0            0            0            0 
10253000    860.23554    54080.975    461.47106   -428.11875    702.90992    274.79117    953.27231   -428.11875            0   -9.6834339            0            0            0            0            0            0 
10254000    908.44856    54093.595    430.10676   -418.28005      655.136    236.85595    953.53065   -418.28005            0   -9.6811748            0            0            0            0            0            0 
10255000      929.697    53082.768    440.64992   -422.26117    671.19529    248.93413    968.66624   -422.26117            0   -9.8655282            0            0            0            0            0            0 
10256000    1178.6006    51149.924    465.93025   -421.21151    709.70213    288.49062    1167.6903   -421.21151            0   -10.238325            0            0            0            0            0            0 
10257000    836.68619     54944.21    443.78929   -420.72035    675.97715     255.2568    925.69758   -420.72035            0   -9.5312963            0            0            0            0            0            0 
10258000    807.05516    52681.121    421.04865   -446.03766    641.33876     195.3011    815.36168   -446.03766            0   -9.9407441            0            0            0            0            0            0 
10259000    731.56808    56033.654    420.18377   -413.88064    640.02137    226.14073    823.97331   -413.88064            0   -9.3459825            0            0            0            0            0            0 
10260000    1166.0672    51715.191    485.47153   -422.04277    739.46729    317.42452    1196.8876   -422.04277            0   -10.126416            0            0            0            0            0            0 
10261000    1003.7277    54646.429    442.67871   -399.12781    674.28553    275.15771    1075.0907   -399.12781            0   -9.5832345            0            0            0            0            0            0 
10262000    820.88017    54652.964    447.46347   -427.23174    681.57364    254.34191    908.63054   -427.23174            0   -9.5820886            0            0            0            0            0            0 
10263000    1146.4837    50700.037    401.11633   -422.81602    610.97796    188.16194    1035.8812   -422.81602            0   -10.329175            0            0            0            0            0            0 
10264000    970.43281    55086.296    462.78068   -412.28179    704.90473    292.62293    1072.2465   -412.28179            0    -9.506712            0            0            0            0            0            0 
10265000    893.43255    51715.967     458.1358   -453.22569    697.82967    244.60399    918.45255   -453.22569            0   -10.126264            0            0            0            0            0            0 
10266000     992.0069    51450.457    440.72684   -436.73346    671.31245      234.579    978.93349   -436.73346            0   -10.178521            0            0            0            0            0            0 
10267000     829.6005    53577.997    438.02272   -434.09457    667.19356    233.09899    881.33234   -434.09457            0   -9.7743397            0            0            0            0            0            0 
10268000     812.1809    53794.153     427.4066   -428.99882    651.02315    222.02433    859.20668   -428.99882            0   -9.7350643            0            0            0            0            0            0 
10269000    986.72706    52570.737    430.36445   -426.28655    655.52851    229.24196      985.756   -426.28655            0    -9.961617            0            0            0            0            0            0 
10270000    854.64744    54156.269     421.3597   -418.62792    641.81254    223.18462    898.19683   -418.62792            0   -9.6699709            0            0            0            0            0            0 
10271000    1005.5956    53262.554    415.48759   -408.10299    632.86818    224.76519    1005.8914   -408.10299            0   -9.8322274            0            0            0            0            0            0 
10272000    1013.8691    52043.616    438.74193   -429.67114    668.28904     238.6179    1008.1474   -429.67114            0   -10.062513            0            0            0            0            0            0 
10273000    956.51877    51518.103    439.34687   -444.68769    669.21048     224.5228    943.19235   -444.68769            0   -10.165156            0            0            0            0            0            0 
10274000    962.45741    54153.325    468.57167   -412.03106    713.72553    301.69446    1061.8151   -412.03106            0   -9.6704966            0            0            0            0            0            0 
10275000    1081.8387    53209.851     450.0547   -404.94057    685.52059    280.58001    1120.0988   -404.94057            0    -9.841966            0            0            0            0            0            0 
10276000    823.53416    51614.176    408.78098   -449.84835    622.65271    172.80435    792.71131   -449.84835            0   -10.146235            0            0            0            0            0            0 
10277000    866.11672     56074.03    467.64303   -411.93265    712.31103    300.37838    1008.6732   -411.93265            0   -9.3392528            0            0            0            0            0            0 
10278000    938.74373    50451.993    434.85668   -463.02341    662.37106    199.34765    890.06643   -463.02341            0   -10.379958            0            0            0            0            0            0 
10279000    886.82544    53929.579    438.77157   -417.21845     668.3342    251.11574    948.61068   -417.21845            0   -9.7106181            0            0            0            0            0            0 
10280000    872.41557    52580.399    455.04727   -438.65751    693.12524    254.46772    923.46319   -438.65751            0   -9.9597864            0            0            0            0            0            0 
10281000    1068.4466     51440.86    440.47999   -435.60122    670.93645    235.33523    1036.8969   -435.60122            0    -10.18042            0            0            0            0            0            0 
10282000    786.98791    55818.083    444.21453   -418.88809    676.62487    257.73678    898.38389   -418.88809            0   -9.3820769            0            0            0            0            0            0 
10283000    980.70635    51360.213    421.24375   -440.35284    641.63593    201.28309    935.86747   -440.35284            0   -10.196405            0            0            0            0            0            0 
10284000     928.7589    53932.235    439.37555   -412.80401    669.25418    256.45017    986.96207   -412.80401            0   -9.7101399            0            0            0            0            0            0 
10285000    899.71765    52788.467    449.94087   -439.04572     685.3472    246.30148    938.96318   -439.04572            0   -9.9205296            0            0            0            0            0            0 
10286000    963.94053    52318.846    448.13872    -428.7846    682.60218    253.81757    989.32029    -428.7846            0   -10.009578            0            0            0            0            0            0 
10287000    894.45236    53363.096    455.71426   -431.27375     694.1412    262.86745    958.97143   -431.27375            0   -9.8137025            0            0            0            0            0            0 
10288000    1057.1286    52734.909    469.32753   -419.72566    714.87685    295.15119    1108.1724   -419.72566            0   -9.9306049            0            0            0            0            0            0 
10289000    663.02335    55425.009    446.38791   -438.45693    679.93535    241.47843    777.41141   -438.45693            0   -9.4486145            0            0            0            0            0            0 
10290000    954.95624    51920.542    432.53274   -437.11546    658.83124    221.71578    944.81613   -437.11546            0   -10.086365            0            0            0            0            0            0 
10291000    795.59137    52648.651    460.71692   -451.11661    701.76122    250.64461    861.52081   -451.11661            0   -9.9468748            0            0            0            0            0            0 
10292000    818.67747    53012.452    436.45883   -444.99423    664.81145    219.81722    852.76316   -444.99423            0   -9.8786139            0            0            0            0            0            0 
10293000    783.67874    53785.568    420.84842   -433.45008    641.03376    207.58368    822.30704   -433.45008            0   -9.7366183            0            0            0            0            0            0 
10294000    889.02828    51825.148     440.1949   -444.49743     670.5022    226.00478    897.94713   -444.49743            0   -10.104931            0            0            0            0            0            0 
10295000    788.82982    53871.076    447.63778   -436.39525    681.83916    245.44391    865.19151   -436.39525            0   -9.7211636            0            0            0            0            0            0 
10296000    733.20535    54581.695    441.50606   -432.27435    672.49935      240.225    823.86968   -432.27435            0   -9.5946003            0            0            0            0            0            0 
10297000    1105.3114    51607.063    448.56375   -424.68246    683.24959    258.56713    1090.4643   -424.68246            0   -10.147633            0            0            0            0            0            0 
10298000     846.6799    56800.495    450.64644   -390.31186    686.42192    296.11006    997.48018   -390.31186            0   -9.2198061            0            0            0            0            0            0 
10299000    881.24772    53084.574    428.36185   -433.30238    652.47817    219.17579    901.42372   -433.30238            0   -9.8651926            0            0            0            0            0            0 
10300000    828.84008     54744.42    423.41446   -413.92739    644.94234    231.01495    892.75358   -413.92739            0   -9.5660808            0            0            0            0            0            0 
10301000    928.80297    51215.777    450.99578   -458.99325    686.95404     227.9608     921.7112   -458.99325            0   -10.225161            0            0            0            0            0            0 
10302000    934.77068     54105.99    452.60487   -408.92161    689.40499    280.48338    1018.0926   -408.92161            0    -9.678957            0            0            0            0            0            0 
10303000    873.12061    53990.663    447.11948   -425.52498    681.04967    255.52469    943.01849   -425.52498            0   -9.6996318            0            0            0            0            0            0 
10304000    747.40603    53244.801    424.04831   -445.32755    645.90781    200.58027     780.9566   -445.32755            0   -9.8355057            0            0            0            0            0            0 
10305000    950.80108    51638.304    408.43502   -433.96285    622.12575     188.1629    904.20329   -433.96285            0   -10.141494            0            0            0            0            0            0 
10306000     785.1355    54189.624    434.17549   -428.87932    661.33347    232.45416     852.9468   -428.87932            0   -9.6640189            0            0            0            0            0            0 
10307000    1004.1367    51936.643    432.39359   -429.01057     658.6193    229.60873     990.1847   -429.01057            0   -10.083238            0            0            0            0            0            0 
10308000    901.02357    53577.423    438.30169   -423.07232    667.61847    244.54615    948.58053   -423.07232            0   -9.7744444            0            0            0            0            0            0 
10309000    888.10687    54158.485    412.50448   -421.70028    628.32432    206.62404    908.09166   -421.70028            0   -9.6695753            0            0            0            0            0            0 
10310000    927.95836    52217.408    441.69869   -438.78607    672.79276    234.00669    940.68163   -438.78607            0   -10.029022            0            0            0            0            0            0 
10311000     867.5762    54526.981    420.36829   -418.34578    640.30243    221.95665    911.87067   -418.34578            0   -9.6042278            0            0            0            0            0            0 
10312000    957.60222    53289.059    450.79161   -429.13721    686.64304    257.50583     1001.722   -429.13721            0   -9.8273371            0            0            0            0            0            0 
10313000    868.20191     53578.22    450.29535   -428.82076    685.88715    257.06639    935.46493   -428.82076            0   -9.7742991            0            0            0            0            0            0 
10314000    967.20779    50023.633     437.7265   -464.12848    666.74236    202.61387    908.23391   -464.12848            0   -10.468843            0            0            0            0            0            0 
10315000    783.81605    55822.826    433.24518   -415.94941    659.91643    243.96702     882.0863   -415.94941            0   -9.3812796            0            0            0            0            0            0 
10316000    911.72167    51240.376     446.3335   -451.36909    679.85248    228.48339    909.80236   -451.36909            0   -10.220252            0            0            0            0            0            0 
10317000    903.98215    54072.948    423.52491      -422.29    645.11057    222.82058    935.69953      -422.29            0   -9.6848713            0            0            0            0            0            0 
10318000    788.77721    52352.388    432.37973   -456.41419    658.59818    202.18399    804.42003   -456.41419            0   -10.003164            0            0            0            0            0            0 
10319000    899.68338     51855.66    429.22681   -443.70716    653.79567    210.08851    890.48452   -443.70716            0   -10.098985            0            0            0            0            0            0 
10320000    854.67984    54541.897     483.3738   -423.27203    736.27204    313.00001    992.84451   -423.27203            0   -9.6016013            0            0            0            0            0            0 
10321000    858.33621    53067.854    435.36869   -437.90489    663.15094    225.24606    889.54697   -437.90489            0   -9.8683009            0            0            0            0            0            0 
10322000    776.35646    54706.908    414.33849   -424.07447    631.11788    207.04342    826.45487   -424.07447            0   -9.5726402            0            0            0            0            0            0 
10323000    821.00283    51613.953    445.21374   -466.94405    678.14687    211.20283    829.20167   -466.94405            0   -10.146279            0            0            0            0            0            0 
10324000    866.02531    54715.289    456.90898   -417.88521    695.96099    278.07578    969.13485   -417.88521            0   -9.5711739            0            0            0            0            0            0 
10325000    848.61505    54157.234    443.53041   -419.00454    675.58283    256.57829    926.83797   -419.00454            0   -9.6697986            0            0            0            0            0            0 
10326000    894.68904    52198.803    461.84227   -444.83492    703.47534    258.64041    939.73676   -444.83492            0   -10.032597            0            0            0            0            0            0 
10327000    862.47855    54630.523    427.87462   -415.99112    651.73603    235.74491    922.90756   -415.99112            0   -9.5860248            0            0            0            0            0            0 
10328000    974.01583    51362.749    444.57262   -450.11493    677.17032    227.05539    956.66435   -450.11493            0   -10.195902            0            0            0            0            0            0 
10329000     787.1664    54544.809    441.72663   -427.04156    672.83533    245.79377    871.96897   -427.04156            0   -9.6010886            0            0            0            0            0            0 
10330000    851.21171    54613.009    426.97511   -413.93468     650.3659    236.43122    914.39983   -413.93468            0   -9.5890989            0            0            0            0            0            0 
10331000    1028.4445    51853.669    433.37588   -428.06422    660.11551    232.05129    1009.7945   -428.06422            0   -10.099373            0            0            0            0            0            0 
10332000    863.36878    54466.323     448.1343    -422.2788    682.59545    260.31665    946.12108    -422.2788            0   -9.6149237            0            0            0            0            0            0 
10333000    905.54836    52491.865    428.16785    -440.5487    652.18267    211.63397    904.86747    -440.5487            0   -9.9765848            0            0            0            0            0            0 
10334000    680.62032    53347.007    430.05564   -451.54228    655.05815    203.51587    733.04623   -451.54228            0   -9.8166621            0            0            0            0            0            0 
10335000     947.5902    53285.809    438.90884   -420.06529    668.54328    248.47799    984.86821   -420.06529            0   -9.8279365            0            0            0            0            0            0 
10336000    925.10279    52587.473    451.28522   -433.23999     687.3949    254.15491    963.64802   -433.23999            0   -9.9584466            0            0            0            0            0            0 
10337000    833.15958    54147.479    442.99926   -425.84999    674.77378    248.92379    906.85779   -425.84999            0   -9.6715407            0            0            0            0            0            0 
10338000     883.9953    52116.135    434.21372   -443.73738     661.3917    217.65433    889.54413   -443.73738            0   -10.048511            0            0            0            0            0            0 
10339000    913.20892    54729.221    439.17687   -410.00357    668.95154    258.94797    987.84352   -410.00357            0   -9.5687375            0            0            0            0            0            0 
10340000    951.38544    49994.418     447.7806   -462.71534    682.05669    219.34134    913.01294   -462.71534            0    -10.47496            0            0            0            0            0            0 
10341000     930.5204    53818.387    438.28048   -423.85805    667.58618    243.72813    974.08053   -423.85805            0   -9.7306809            0            0            0            0            0            0 
10342000    949.60704    53353.576     445.7347   -425.62395    678.94039    253.31644     992.2125   -425.62395            0   -9.8154535            0            0            0            0            0            0 
10343000    1010.1238     51985.85     422.2896   -427.23428    643.22896    215.99468    981.83046   -427.23428            0   -10.073694            0            0            0            0            0            0 
10344000    996.36203    54742.112    458.51112   -401.23836    698.40136      297.163    1092.6161   -401.23836            0   -9.5664842            0            0            0            0            0            0 
10345000     1009.479    51963.863    410.79059   -435.40534    625.71373    190.30839    955.33162   -435.40534            0   -10.077956            0            0            0            0            0            0 
10346000    801.90111    56392.344    456.79531   -402.75193    695.78784    293.03591    952.53902   -402.75193            0   -9.2865363            0            0            0            0            0            0 
10347000    976.86007    50326.609     439.9657   -453.27015    670.15308    216.88293    933.86107   -453.27015            0   -10.405818            0            0            0            0            0            0 
10348000    940.17088    52493.124    418.79389   -429.44294    637.90431    208.46137    928.21706   -429.44294            0   -9.9763456            0            0            0            0            0            0 
10349000    866.82966    54397.601    430.31385   -418.18548    655.45145    237.26597    924.95073   -418.18548            0   -9.6270706            0            0            0            0            0            0 
10350000    747.79627    54503.887    447.44112   -431.08797     681.5396    250.45163    844.86238   -431.08797            0   -9.6082972            0            0            0            0            0            0 
10351000    907.83054    52972.669    445.51464   -438.01204     678.6052    240.59316     941.9395   -438.01204            0   -9.8860329            0            0            0            0            0            0 
10352000    910.40802    50786.233    432.19876   -449.48301    658.32253    208.83952    883.14698   -449.48301            0   -10.311644            0            0            0            0            0            0 
10353000    699.06471    53775.279    443.30381   -448.24306    675.23767    226.99461     775.2412   -448.24306            0   -9.7384812            0            0            0            0            0            0 
[...]
14939000    1104.6591    51487.883     423.6987    -427.8948     645.3753     217.4805    1046.9668    -427.8948            0   -10.171122            0            0            0            0            0            0 
14940000    809.54195    54364.649    437.92754   -428.15822    667.04857    238.89034    880.73781   -428.15822            0   -9.6329059            0            0            0            0            0            0 
14941000    983.68956    52087.222    428.72622   -426.60328    653.03318     226.4299    973.67857   -426.60328            0   -10.054089            0            0            0            0            0            0 
14942000    905.70774    52547.136    445.23035   -435.88369    678.17217    242.28848    936.37406   -435.88369            0    -9.966091            0            0            0            0            0            0 
14943000    809.66659    55026.032    453.36706   -413.65829    690.56595    276.90765    926.66367   -413.65829            0   -9.5171235            0            0            0            0            0            0 
14944000    925.28123    53560.512    457.14242   -418.68065    696.31655    277.63591    1000.3963   -418.68065            0   -9.7775306            0            0            0            0            0            0 
14945000    820.83693    55631.938    432.23388   -412.64774    658.37602    245.72827    911.70181   -412.64774            0   -9.4134693            0            0            0            0            0            0 
14946000    845.07307    53085.511    432.18464   -431.33864    658.30102    226.96237    881.21602   -431.33864            0   -9.8650185            0            0            0            0            0            0 
14947000    982.19605    53653.474    466.29578   -421.67201     710.2589    288.58689    1057.1365   -421.67201            0   -9.7605897            0            0            0            0            0            0 
14948000    935.22546    51016.801    445.79314   -454.99636    679.02941    224.03305    919.86671   -454.99636            0   -10.265041            0            0            0            0            0            0 
14949000    988.34526    53491.829    468.15076   -415.41051     713.0844    297.67389    1068.7052   -415.41051            0   -9.7900849            0            0            0            0            0            0 
14950000    949.39995    53095.358    441.82323   -423.72714    672.98246    249.25532    984.41495   -423.72714            0   -9.8631889            0            0            0            0            0            0 
14951000    897.43001    51888.613    442.84342   -448.42122    674.53641    226.11518    905.23834   -448.42122            0   -10.092572            0            0            0            0            0            0 
14952000    1017.7426    52955.362    420.38029    -412.2062    640.32071    228.11451    1014.1167    -412.2062            0   -9.8892638            0            0            0            0            0            0 
14953000    985.06753    54519.541    439.63435   -391.08239    669.64837    278.56598    1061.8046   -391.08239            0   -9.6055385            0            0            0            0            0            0 
14954000    876.53685    52834.791    425.93523   -444.45713    648.78196    204.32483    879.73261   -444.45713            0   -9.9118315            0            0            0            0            0            0 
14955000    874.32217    55141.601    407.26133   -412.03538    620.33799    208.30261    911.41824   -412.03538            0    -9.497177            0            0            0            0            0            0 
14956000    788.78568    55996.122    405.26202   -408.36021    617.29266    208.93245    853.09111   -408.36021            0   -9.3522467            0            0            0            0            0            0 
14957000    913.59391    51305.196    428.25613   -452.19628    652.31713    200.12085    883.70256   -452.19628            0   -10.207339            0            0            0            0            0            0 
14958000    841.57751    54765.603    462.57128   -424.03337    704.58577     280.5524    952.72048   -424.03337            0   -9.5623807            0            0            0            0            0            0 
14959000     1007.431    51260.393    438.38099   -438.55266    667.73927    229.18661    982.32215   -438.55266            0   -10.216261            0            0            0            0            0            0 
14960000    997.39762    53284.655    428.38608   -404.82471    652.51508    247.69037    1022.7701   -404.82471            0   -9.8281493            0            0            0            0            0            0 
14961000    844.25807    54837.797    438.77789   -414.65963    668.34382    253.68419    928.88213   -414.65963            0   -9.5497918            0            0            0            0            0            0 
14962000    880.95919    51208.304    444.75978   -456.73984     677.4554    220.71556    878.63403   -456.73984            0   -10.226653            0            0            0            0            0            0 
14963000    873.49996    57066.361     457.2083   -393.10235    696.41692    303.31457    1030.2887   -393.10235            0    -9.176852            0            0            0            0            0            0 
14964000     913.2282    53226.659    449.15308   -428.04684    684.14724     256.1004    964.99947   -428.04684            0   -9.8388582            0            0            0            0            0            0 
14965000    878.10219    52733.724    455.81221   -442.83259    694.29039    251.45781    926.77746   -442.83259            0   -9.9308281            0            0            0            0            0            0 
14966000    773.23868     54738.69    430.21736   -420.05974    655.30448    235.24474    852.52708   -420.05974            0   -9.5670822            0            0            0            0            0            0 
14967000    776.98618    54761.715    436.25085   -424.67624    664.49465    239.81841    860.35332   -424.67624            0   -9.5630596            0            0            0            0            0            0 
14968000    1059.1063    50416.387    432.20973   -451.47391    658.33924    206.86533    985.59575   -451.47391            0   -10.387288            0            0            0            0            0            0 
14969000    767.96862    54673.817    420.63054   -427.24608    640.70189    213.45581    825.80445   -427.24608            0    -9.578434            0            0            0            0            0            0 
14970000    693.91073    55201.767    435.90335   -433.04061    663.96534    230.92473     789.5653   -433.04061            0   -9.4868257            0            0            0            0            0            0 
14971000    817.76387    51965.272    452.70113   -458.94006    689.55161    230.61155    850.36223   -458.94006            0   -10.077683            0            0            0            0            0            0 
14972000    753.76595    54309.573    427.18132   -429.13017       650.68    221.54983    818.56972   -429.13017            0   -9.6426747            0            0            0            0            0            0 
14973000    945.38271    52339.297    420.29469   -431.05577    640.19033    209.13456    930.75933   -431.05577            0   -10.005666            0            0            0            0            0            0 
14974000    884.45904    51582.468    432.23119   -446.73103    658.37192    211.64089    876.99943   -446.73103            0   -10.152472            0            0            0            0            0            0 
14975000     856.3692    52932.526    452.06365   -445.04375    688.58061    243.53686    904.62528   -445.04375            0   -9.8935302            0            0            0            0            0            0 
14976000    1094.7439    50790.073    457.59752   -441.35936    697.00976     255.6504    1066.5503   -441.35936            0   -10.310864            0            0            0            0            0            0 
14977000    780.70849    54313.644    430.15761   -429.05965    655.21346    226.15381    844.55986   -429.05965            0    -9.641952            0            0            0            0            0            0 
14978000    784.98003     53864.49    410.91924   -439.21661    625.90969    186.69308    803.34069   -439.21661            0   -9.7223523            0            0            0            0            0            0 
14979000    893.99032    51238.386    433.94313   -447.07761    660.97954    213.90193    881.94451   -447.07761            0   -10.220649            0            0            0            0            0            0 
14980000    918.73808    54734.652    448.47996   -414.46462    683.12195    268.65734    1002.0389   -414.46462            0    -9.567788            0            0            0            0            0            0 
14981000    735.39294    55503.741    425.14405   -425.31661    647.57683    222.26023    817.53516   -425.31661            0   -9.4352118            0            0            0            0            0            0 
14982000    753.40913    55554.328    441.09419    -423.6802      671.872     248.1918    858.60606    -423.6802            0   -9.4266201            0            0            0            0            0            0 
14983000    1092.3097    51571.948    445.12217   -429.00446    678.00739    249.00294    1070.5553   -429.00446            0   -10.154543            0            0            0            0            0            0 
14984000    924.06016    53831.601    454.86902   -421.73042    692.85373    271.12331    996.58325   -421.73042            0   -9.7282921            0            0            0            0            0            0 
14985000    823.65462    53692.513    449.62623   -435.40041    684.86795    249.46755    894.43048   -435.40041            0    -9.753493            0            0            0            0            0            0 
14986000    836.32886    50967.732    433.63491   -469.52687    660.51006    190.98319    812.63654   -469.52687            0   -10.274923            0            0            0            0            0            0 
14987000    880.93407    54501.463    445.40694   -416.93978    678.44115    261.50137       961.71   -416.93978            0   -9.6087245            0            0            0            0            0            0 
14988000    946.75459    53763.623    445.82681   -426.79691    679.08069    252.28378    994.62203   -426.79691            0   -9.7405926            0            0            0            0            0            0 
14989000      934.087    51520.157     433.3406   -446.29604    660.06177    213.76574    915.60942   -446.29604            0   -10.164751            0            0            0            0            0            0 
14990000    942.64235    53212.512    432.58902   -425.86634    658.91696    233.05062    964.58812   -425.86634            0   -9.8414739            0            0            0            0            0            0 
14991000    834.55726    56168.354    446.68965   -394.49093    680.39497    285.90404    969.53815   -394.49093            0   -9.3235694            0            0            0            0            0            0 
14992000    821.60073    53110.025    426.22146   -439.54552    649.21795    209.67243    846.04757   -439.54552            0   -9.8604651            0            0            0            0            0            0 
14993000    855.65012    53036.902    422.01612    -432.3388     642.8124     210.4736     872.3094    -432.3388            0   -9.8740598            0            0            0            0            0            0 
14994000    667.43596    55726.058     424.5981   -431.68978    646.74526    215.05548    757.48561   -431.68978            0   -9.3975703            0            0            0            0            0            0 
14995000    761.55062    52925.229    411.82713   -441.35552    627.29258    185.93706    773.74765   -441.35552            0   -9.8948943            0            0            0            0            0            0 
14996000    869.29492    51568.102    443.33803   -452.72558     675.2898    222.56422      876.333   -452.72558            0     -10.1553            0            0            0            0            0            0 
14997000    694.78167    52742.353    423.67265   -462.96722    645.33561     182.3684    716.78968   -462.96722            0   -9.9292034            0            0            0            0            0            0 
14998000    755.94614    53174.983    446.35739   -445.51405    679.88887    234.37483    820.61302   -445.51405            0   -9.8484195            0            0            0            0            0            0 
14999000    782.85126    53186.488    449.49761   -444.56315    684.67204    240.10889    847.34342   -444.56315            0   -9.8462892            0            0            0            0            0            0 
15000000    973.29876    53302.065    452.74463   -417.58578    689.61788     272.0321    1028.6317   -417.58578            0   -9.8249391            0            0            0            0            0            0 
Loop time of 1589.01 on 8 procs for 5000000 steps with 512 atoms

Pair  time (%) = 875.11 (55.0727)
Bond  time (%) = 0.473179 (0.0297783)
Neigh time (%) = 37.313 (2.34819)
Comm  time (%) = 510.766 (32.1437)
Outpt time (%) = 0.283794 (0.0178598)
Other time (%) = 165.063 (10.3878)

Nlocal:    64 ave 71 max 57 min
Histogram: 1 0 0 3 1 0 1 0 1 1
Nghost:    1341.88 ave 1361 max 1325 min
Histogram: 1 1 0 1 2 1 0 0 0 2
Neighs:    6209.88 ave 6814 max 5428 min
Histogram: 1 0 0 2 0 1 1 0 2 1

Total # of neighbors = 49679
Ave neighs/atom = 97.0293
Ave special neighs/atom = 0
Neighbor list builds = 96540
Dangerous builds = 0

Averages
Group Pressure(MPa) Volume(m3) Temperature(K) PE(J) KE(J) ET(J) ET^2(J) H(J) H^2(J^2) V^2(m6) V*H(m3*J) Hconf(J) Uext*Hconf(J^2) V*Hconf(m3*J) Uext(J)
Block1 90.360963361998699384 5.3270364245043718829e-26 439.89514138153816702 -2.992038506277925749e-18 4.6552724422396312225e-18 1.663233935961708555e-18 2.8070984713508846397e-36 6.4709831439318702049e-18 4.2215451802729411084e-35 2.8394906048714665181e-51 3.4466468362889840862e-43 1.8157107016922355157e-18 -5.3998755958567747643e-36 9.6668116451141192774e-44 -2.992038506277925749e-18
Block2 89.927032967234126204 5.3267690251759746547e-26 439.48957263928627981 -2.9971207922917994675e-18 4.6509804353233801879e-18 1.6538596430315793722e-18 2.7775409634993479473e-36 6.4382379930801692314e-18 4.1769171838524009012e-35 2.839229562357874936e-51 3.4290650407225443847e-43 1.7872575577567890435e-18 -5.327232043252081373e-36 9.5150450495655205614e-44 -2.9971207922917994675e-18
Block3 90.524979034488609386 5.3276367478414918147e-26 440.77588205220752116 -2.9912849173007457852e-18 4.6645930447815390997e-18 1.6733081274807865738e-18 2.8369699994966724392e-36 6.4902318415637568879e-18 4.243157781810921191e-35 2.8400727292089827496e-51 3.4570840591956866054e-43 1.8256387967822200993e-18 -5.4323818497625737912e-36 9.7195780198106170486e-44 -2.9912849173007457852e-18
Block4 89.820574803147664511 5.3293366028958167315e-26 440.64813538652538227 -2.9958127028805718174e-18 4.6632411418474089485e-18 1.6674284389668405978e-18 2.8177378222844467279e-36 6.4481643316774157296e-18 4.1891223991464478417e-35 2.8418266724081870682e-51 3.4354570609301308129e-43 1.7849231898299967662e-18 -5.3208158327087089265e-36 9.5033257827736775127e-44 -2.9958127028805718174e-18
Block5 89.433108436179722389 5.3339760549574558333e-26 440.21601485873645743 -2.994656590372272763e-18 4.6586681457046899e-18 1.6640115553324196407e-18 2.8050858960167488069e-36 6.4273948391839278117e-18 4.1629491918363744375e-35 2.846929491816523968e-51 3.4270371033179029996e-43 1.768726693479240608e-18 -5.2694892367914254449e-36 9.4227096265818638105e-44 -2.994656590372272763e-18
Ave_blocks 90.013331720609770059 5.3289509710750226426e-26 440.20494926365881838 -2.9941827018246637327e-18 4.6585510419793301799e-18 1.6643683401546668323e-18 2.808886630529620179e-36 6.4550024298874288975e-18 4.1987383473838167752e-35 2.841509812132607048e-51 3.4390580200910500167e-43 1.7964513879080964065e-18 -5.3499589116743120582e-36 9.5654940247691608369e-44 -2.9941827018246637327e-18
Stdev_blocks 0.39086890276732627614 2.6665985491563568108e-29 0.47544616403093392654 2.2139818915519481449e-21 5.0314977752000329573e-21 6.3424109876874485654e-21 1.9324663752204468383e-38 2.2744140614570714798e-20 2.9471108138052247917e-37 2.8571059706802443363e-54 1.1312446249090675228e-45 2.1018613413703680462e-20 5.8525916068879071159e-38 1.1027648117156778432e-45 2.2139818915519481449e-21






Properties
Group rho(kg/m3) Cp(J/K) Cp_conf(J/K) Cp_id(J/K) Cp2(J/K) kT(1/Pa) aP(1/K) aP2(1/K) Cv(J/K) uJT(K/Pa) sos(m/s) Cv2(J/K) uJT2(K/Pa) sos2(m/s) CvNVT(J/K)
Block1 256.03793691816650835 1.2794617157900784888e-19 3.3327911607606483768e-21 3.6479458537888027222e-20 3.9812249698648675599e-20 5.4365404218014162929e-09 -0.00032985759810265726823 -0.00038964184929980851891 1.2747717983809862364e-19 -4.7676331453211826677e-07 849.1491004881382878 3.9157849530939118051e-20 -1.5673815988350495188e-06 854.64444221173766891 1.5253180288474695178e-20
Block2 256.05078980742314343 1.1934557031703255354e-19 2.1789867314287920393e-21 3.645914221476628512e-20 3.8638128946195075654e-20 5.5155873082124794331e-09 -0.00030667236539398603102 -0.00037051128262885951519 1.1894638922359087018e-19 -5.064877771210428748e-07 842.88549242407111706 3.8055457746330998065e-20 -1.6031205782567833883e-06 847.89217442326912533 1.5858041769749337322e-20
Block3 256.009086312167085 1.1499842711747940066e-19 1.3200577590188790086e-21 3.6523601676730485434e-20 3.7843659435749364442e-20 5.2477138437912127767e-09 -0.00047282985725490212425 -0.00047319744195438450968 1.1399798476387975584e-19 -5.5983201902944945224e-07 866.53199100886024553 3.684166096109575508e-20 -1.7014325402744607094e-06 874.40815556265329178 1.3797460609978851793e-20
Block4 255.92742918075521175 1.1653193692047378901e-19 -2.5067074463022767864e-22 3.6517196946137987775e-20 3.6266526201507758591e-20 5.0699448378101013893e-09 -0.00069067006197178653411 -0.00063909308939536825251 1.1432239056885754277e-19 -5.9651287692409181208e-07 886.33275603209813198 3.437466140117535415e-20 -1.8833231068103051716e-06 901.72421133688726513 1.3958517020833840043e-20
Block5 255.70482543699839084 1.1888627140402643604e-19 -7.774593251175430105e-22 3.6495537108247770266e-20 3.5718077783130224998e-20 5.5505544220103461257e-09 -0.00092486747408577736976 -0.00081535244256606710916 1.1526767999959367116e-19 -6.3133100551394054486e-07 852.46083036149195777 3.2905715353018875976e-20 -2.029366345243094852e-06 874.52197439828762526 1.3511722031440312019e-20
Ave_blocks 255.94601353110201103 1.1954167546760400081e-19 1.1607411162921097471e-21 3.6494987296754111163e-20 3.7655728413046224672e-20 5.3640681667251108727e-09 -0.00054497947136182187632 -0.00053755922116889760277 1.1800232487880409272e-19 -5.5418539862412860074e-07 859.47203406293192529 3.6267068998512022672e-20 -1.7569248338839388551e-06 870.63819158656713171 1.4475784344095406368e-20
Stdev_blocks 0.12800252161232117398 4.4900600952822089494e-21 1.5184671029234330627e-21 2.382589269891296391e-23 1.5056816184199818919e-21 1.8057367608855778085e-10 0.00023401448960735368255 0.00016816967713951264259 5.0540888967977539488e-21 5.66466002613307565e-08 15.505964499208429785 2.3136554267210333853e-21 1.7485003984116887516e-07 18.808606206121716298 9.1346425871784388953e-22






