LAMMPS (28 Oct 2012)
Scanning data file ...
Reading data file ...
  orthogonal box = (0 0 0) to (100 100 100)
  2 by 2 by 2 MPI processor grid
  512 atoms
Finding 1-2 1-3 1-4 neighbors ...
  0 = max # of 1-2 neighbors
  0 = max # of 1-3 neighbors
  0 = max # of 1-4 neighbors
  1 = max # of special neighbors
WARNING: Resetting reneighboring criteria during minimization (min.cpp:173)
Setting up minimization ...
Memory usage per processor = 4.05499 Mbytes
Step Temp E_pair E_mol TotEng Press 
       0       460.15    1409.7233            0     2110.621    444.55609 
     701       460.15   -217.27527            0    483.62242    31.811195 
Loop time of 0.052727 on 8 procs for 701 steps with 512 atoms

Minimization stats:
  Stopping criterion = energy tolerance
  Energy initial, next-to-last, final = 
         1409.72334813     -217.256630745     -217.275265106
  Force two-norm initial, final = 5034.49 0.337455
  Force max component initial, final = 2457.89 0.147661
  Final line search alpha, max atom move = 0.254892 0.0376377
  Iterations, force evaluations = 701 710

Pair  time (%) = 0.00894511 (16.9649)
Bond  time (%) = 6.27935e-05 (0.119092)
Neigh time (%) = 0.00314116 (5.95741)
Comm  time (%) = 0.0203288 (38.5547)
Outpt time (%) = 0 (0)
Other time (%) = 0.0202492 (38.4038)

Nlocal:    64 ave 74 max 52 min
Histogram: 1 0 0 1 1 2 0 2 0 1
Nghost:    235.125 ave 266 max 224 min
Histogram: 4 0 2 0 0 1 0 0 0 1
Neighs:    316.25 ave 371 max 226 min
Histogram: 1 0 0 1 1 1 0 1 0 3

Total # of neighbors = 2530
Ave neighs/atom = 4.94141
Ave special neighs/atom = 0
Neighbor list builds = 60
Dangerous builds = 0
Setting up run ...
Memory usage per processor = 3.36354 Mbytes
Step Temp E_pair E_mol TotEng Press Volume 
     701       460.15   -217.27527            0    483.62242    31.811195      1000000 
 5000701    485.52421   -419.41002            0    320.13752    1039.8168    54082.586 
Loop time of 1489.22 on 8 procs for 5000000 steps with 512 atoms

Pair  time (%) = 846.6 (56.8485)
Bond  time (%) = 0.465097 (0.0312309)
Neigh time (%) = 37.5339 (2.52038)
Comm  time (%) = 446.29 (29.968)
Outpt time (%) = 3.92199e-05 (2.63358e-06)
Other time (%) = 158.331 (10.6318)

Nlocal:    64 ave 69 max 56 min
Histogram: 1 0 0 1 1 0 1 1 2 1
Nghost:    1330.12 ave 1386 max 1266 min
Histogram: 1 0 0 1 3 0 0 1 1 1
Neighs:    6115.75 ave 6754 max 5005 min
Histogram: 1 1 0 0 1 0 0 0 3 2

Total # of neighbors = 48926
Ave neighs/atom = 95.5586
Ave special neighs/atom = 0
Neighbor list builds = 98798
Dangerous builds = 14
Setting up run ...
Memory usage per processor = 3.96774 Mbytes
Step Press Volume Temp PotEng KinEng TotEng Enthalpy E_vdwl E_coul E_tail E_long E_bond E_angle E_dihed E_impro E_mol 
10000000    1039.8168    54082.586    485.52421   -419.41002    739.54754    320.13752    1140.2816   -419.41002            0   -9.6831453            0            0            0            0            0            0 
10001000    818.24587    57305.454    476.81474   -400.41211    726.28132    325.86921    1009.7111   -400.41211            0   -9.1385637            0            0            0            0            0            0 
10002000    808.85519    55492.972    481.45063   -423.03922    733.34268    310.30346     964.9165   -423.03922            0   -9.4370426            0            0            0            0            0            0 
10003000     868.8178    56562.892    464.60105   -399.27418     707.6775    308.40332    1025.1013   -399.27418            0   -9.2585356            0            0            0            0            0            0 
10004000    1049.6171     53198.18    434.17385   -406.95249    661.33098    254.37849    1068.7144   -406.95249            0   -9.8441252            0            0            0            0            0            0 
10005000    754.53512    56444.474    443.65837   -415.48836    675.77774    260.28939    881.41119   -415.48836            0   -9.2779596            0            0            0            0            0            0 
10006000    796.46071    55965.043    436.88148   -411.32807    665.45523    254.12715    904.19261   -411.32807            0   -9.3574402            0            0            0            0            0            0 
10007000    979.78476    54065.971    447.87613   -408.96437    682.20221    273.23784    1045.7949   -408.96437            0   -9.6861212            0            0            0            0            0            0 
10008000    771.41475    58107.905     465.0626   -403.30682    708.38054    305.07372    958.80468   -403.30682            0   -9.0123632            0            0            0            0            0            0 
10009000    1173.1599    53276.739    469.01814    -399.8497    714.40559    314.55589    1226.0854    -399.8497            0   -9.8296096            0            0            0            0            0            0 
10010000    908.24576    56461.753    470.16672   -404.60784    716.15509    311.54725    1059.4302   -404.60784            0   -9.2751202            0            0            0            0            0            0 
10011000    893.77879    55182.158    440.25902   -406.95236    670.59986     263.6475    982.93848   -406.95236            0   -9.4901969            0            0            0            0            0            0 
10012000    805.53027    52868.241    410.20569   -445.68995    624.82282    179.13287    800.22013   -445.68995            0   -9.9055603            0            0            0            0            0            0 
10013000    756.87357    56121.703    461.98618   -418.81077    703.69455    284.88378    904.36775   -418.81077            0   -9.3313196            0            0            0            0            0            0 
10014000    936.72556    52892.283    464.37308   -433.15963    707.33026    274.17062     996.7417   -433.15963            0   -9.9010577            0            0            0            0            0            0 
10015000    772.66522    56072.511    443.71252   -424.29678    675.86023    251.56344     883.4182   -424.29678            0   -9.3395058            0            0            0            0            0            0 
10016000    884.39269     57524.09    459.65633   -382.05402    700.14573    318.09171    1060.0351   -382.05402            0   -9.1038301            0            0            0            0            0            0 
10017000     908.7216    54591.519    468.90981   -420.63583    714.24058    293.60476    1017.0937   -420.63583            0   -9.5928737            0            0            0            0            0            0 
10018000    893.76504    54159.748    489.44448   -428.58149    745.51886    316.93737    1022.8905   -428.58149            0   -9.6693497            0            0            0            0            0            0 
10019000    925.29736    56678.398    464.99273   -397.53694     708.2741    310.73716    1075.5845   -397.53694            0   -9.2396674            0            0            0            0            0            0 
10020000    762.32636    55443.243    450.97193    -424.1469    686.91771    262.77081    879.17481    -424.1469            0   -9.4455071            0            0            0            0            0            0 
10021000    746.37638    56139.945    445.53383   -415.37678    678.63442    263.25764    874.34846   -415.37678            0   -9.3282875            0            0            0            0            0            0 
10022000    816.82388    55846.039    428.17583   -398.93756    652.19483    253.25727    918.52535   -398.93756            0   -9.3773804            0            0            0            0            0            0 
10023000    919.19814    54054.185    472.18715    -424.0555     719.2326     295.1771    1019.8038    -424.0555            0   -9.6882331            0            0            0            0            0            0 
10024000    740.52495    56007.529    466.49376   -413.59564    710.56047    296.96483    901.83475   -413.59564            0   -9.3503419            0            0            0            0            0            0 
10025000    930.97201    53135.881    462.97817   -430.28527    705.20554    274.92027    996.36057   -430.28527            0   -9.8556669            0            0            0            0            0            0 
10026000    715.91319    56667.508    459.55168   -419.36667    699.98633    280.61966    872.27716   -419.36667            0   -9.2414429            0            0            0            0            0            0 
10027000    713.87037     56411.58    437.86085   -415.79536    666.94699    251.15163    838.45637   -415.79536            0   -9.2833697            0            0            0            0            0            0 
10028000    1023.0496    52670.699    457.05175   -424.78245    696.17845      271.396    1057.2496   -424.78245            0   -9.9427111            0            0            0            0            0            0 
10029000    935.20674    56100.263    469.60289   -401.31914    715.29627    313.97713    1079.1304   -401.31914            0   -9.3348858            0            0            0            0            0            0 
10030000    829.58798    56430.294    466.11801   -405.59783    709.98812     304.3903    987.12291   -405.59783            0   -9.2802909            0            0            0            0            0            0 
10031000      781.838    55785.805    441.33809   -417.61012     672.2435    254.63339    890.72017   -417.61012            0   -9.3875054            0            0            0            0            0            0 
10032000    988.92029     52603.66    471.46475   -429.68688    718.13225    288.44537    1047.1158   -429.68688            0   -9.9553822            0            0            0            0            0            0 
10033000    808.84914    55673.518    459.12725   -421.50685    699.33985    277.83299     934.5709   -421.50685            0   -9.4064388            0            0            0            0            0            0 
10034000    906.78459    53995.963    460.50105   -423.78873     701.4324    277.64367    991.71453   -423.78873            0   -9.6986797            0            0            0            0            0            0 
10035000    821.01885    54151.604    472.28545   -429.61036    719.38234    289.77198      938.168   -429.61036            0   -9.6708039            0            0            0            0            0            0 
10036000    832.79532    55369.358    428.08336   -413.40819    652.05398    238.64579    911.13242   -413.40819            0   -9.4581111            0            0            0            0            0            0 
10037000    839.42152    54876.794    455.86027   -421.93048     694.3636    272.43312    944.24042   -421.93048            0   -9.5430055            0            0            0            0            0            0 
10038000    977.87428    53162.604    468.11396   -423.32731    713.02835    289.70104    1047.8685   -423.32731            0   -9.8507128            0            0            0            0            0            0 
10039000     978.3224    56042.541     464.2989   -388.52582    707.21727    318.69145    1118.2968   -388.52582            0   -9.3445004            0            0            0            0            0            0 
10040000    859.37592    53893.693    434.09475   -430.95228    661.21048     230.2582    905.71412   -430.95228            0   -9.7170841            0            0            0            0            0            0 
10041000    1020.7715    56288.094    474.44469   -382.47972    722.67128    340.19156    1178.1471   -382.47972            0   -9.3037356            0            0            0            0            0            0 
10042000    951.98224     55353.68    513.91072   -413.07486    782.78569    369.71083    1138.2239   -413.07486            0   -9.4607901            0            0            0            0            0            0 
10043000    800.33832    55403.981    447.83749   -418.39724    682.14334     263.7461    910.42765   -418.39724            0   -9.4522007            0            0            0            0            0            0 
10044000    991.14529    53677.541    468.04158   -413.25568     712.9181    299.66242    1075.5626   -413.25568            0   -9.7562133            0            0            0            0            0            0 
10045000    787.77596    55850.678    467.26579   -415.33177    711.73642    296.40465    938.06775   -415.33177            0   -9.3766013            0            0            0            0            0            0 
10046000    889.37901    55368.574    469.29966   -411.40078    714.83439    303.43361    1021.6017   -411.40078            0   -9.4582451            0            0            0            0            0            0 
10047000    926.24115    54851.473    485.11704    -417.2934    738.92734    321.63394    1062.5828    -417.2934            0   -9.5474108            0            0            0            0            0            0 
10048000    951.96432    53839.154    464.04069   -417.00419    706.82397    289.81977    1037.2915   -417.00419            0   -9.7269275            0            0            0            0            0            0 
10049000    770.37324    56406.754    459.55309   -412.04171    699.98847    287.94676    921.68248   -412.04171            0   -9.2841639            0            0            0            0            0            0 
10050000    995.16735    54491.727    460.30444    -408.5375    701.13293    292.59543    1083.4608    -408.5375            0   -9.6104414            0            0            0            0            0            0 
10051000    871.59379    55653.274    452.92389   -402.68729    689.89092    287.20363    994.62917   -402.68729            0   -9.4098605            0            0            0            0            0            0 
10052000    930.52243    54592.493    442.16217   -411.85801    673.49873    261.64072    1002.4999   -411.85801            0   -9.5927024            0            0            0            0            0            0 
10053000    983.56359    53992.183    458.56593   -415.19196    698.48484    283.29289    1057.7711   -415.19196            0   -9.6993587            0            0            0            0            0            0 
10054000    905.20472    54203.164    454.49248   -412.49438    692.28018     279.7858    995.34792   -412.49438            0   -9.6616047            0            0            0            0            0            0 
10055000    803.58082    56937.613    468.46866   -408.45244    713.56863    305.11619    972.39097   -408.45244            0   -9.1976027            0            0            0            0            0            0 
10056000    1095.2391    53522.721    467.28241   -405.87476    711.76174    305.88698    1160.8021   -405.87476            0   -9.7844343            0            0            0            0            0            0 
10057000    870.49926    57009.145    472.08605   -394.19862     719.0786    324.87998    1048.6304   -394.19862            0   -9.1860621            0            0            0            0            0            0 
10058000    929.62331    55145.832    464.82448   -409.86897    708.01783    298.14886    1045.7941   -409.86897            0   -9.4964483            0            0            0            0            0            0 
10059000    946.04098    53218.331    443.71345   -420.43597    675.86164    255.42567    989.68096   -420.43597            0   -9.8403978            0            0            0            0            0            0 
10060000    726.26642     57217.03    429.29367   -400.93494    653.89751    252.96257    858.99682   -400.93494            0   -9.1526866            0            0            0            0            0            0 
10061000    896.09824    53959.748     442.8354   -420.04703     674.5242    254.47717     959.6595   -420.04703            0   -9.7051889            0            0            0            0            0            0 
10062000    745.34753    55167.287    469.85227   -429.85678    715.67613    285.81935    885.49489   -429.85678            0   -9.4927551            0            0            0            0            0            0 
10063000    912.67347    56257.361    452.39359   -401.15464    689.08318    287.92854    1036.7369   -401.15464            0   -9.3088182            0            0            0            0            0            0 
10064000    1144.7142    52647.741    481.16307   -411.65083    732.90467    321.25384    1200.1806   -411.65083            0   -9.9470468            0            0            0            0            0            0 
10065000    724.65215    58101.634    461.33347   -402.55234    702.70034      300.148    914.18398   -402.55234            0   -9.0133359            0            0            0            0            0            0 
10066000    712.74301    55600.263    441.90729   -428.05156     673.1105    245.05894    823.00286   -428.05156            0   -9.4188322            0            0            0            0            0            0 
10067000    911.50244     52569.18     446.2313   -436.09591    679.69681     243.6009    942.42025   -436.09591            0   -9.9619121            0            0            0            0            0            0 
10068000    914.98904    55279.955    468.16226   -411.25669    713.10191    301.84522    1039.5107   -411.25669            0   -9.4734075            0            0            0            0            0            0 
10069000    877.27977    56249.251    501.01809   -406.35464    763.14772    356.79308    1076.4587   -406.35464            0   -9.3101602            0            0            0            0            0            0 
10070000    850.28228    53604.616    473.47547   -434.27342    721.19496    286.92155    951.64532   -434.27342            0   -9.7694859            0            0            0            0            0            0 
10071000    790.11332    54773.573    475.54817   -426.75186    724.35209    297.60023    928.75569   -426.75186            0   -9.5609892            0            0            0            0            0            0 
10072000    957.32578    54194.965    448.33451   -410.53304    682.90041    272.36737    1029.0166   -410.53304            0   -9.6630663            0            0            0            0            0            0 
10073000    1013.4355     54773.88    439.74156   -398.30209    669.81168    271.50959     1081.063   -398.30209            0   -9.5609357            0            0            0            0            0            0 
10074000    870.48356     57084.37     453.5897   -387.37269    690.90508     303.5324    1028.2247   -387.37269            0   -9.1739568            0            0            0            0            0            0 
10075000    923.50501    53947.848    484.71488    -427.0319    738.31476    311.28286    1037.8726    -427.0319            0   -9.7073296            0            0            0            0            0            0 
10076000    838.37977    55733.143    443.85448   -413.20977    676.07646    262.86668    944.31075   -413.20977            0   -9.3963756            0            0            0            0            0            0 
10077000    858.43005    53930.977    476.21774   -420.72843    725.37197    304.64354    979.82279   -420.72843            0   -9.7103663            0            0            0            0            0            0 
10078000    839.78729    55222.304    487.76995   -421.98468    742.96823    320.98355    997.31519   -421.98468            0   -9.4832977            0            0            0            0            0            0 
10079000    971.36065    52871.634    450.08988    -433.7366    685.57417    251.83757    1000.8329    -433.7366            0   -9.9049246            0            0            0            0            0            0 
10080000    796.83159    57469.602    440.17338   -388.52908    670.46943    281.94035    949.79295   -388.52908            0   -9.1124617            0            0            0            0            0            0 
10081000    1022.1919     54318.09    478.01852   -411.98805    728.11491    316.12686    1125.8803   -411.98805            0   -9.6411627            0            0            0            0            0            0 
10082000    796.07717    56692.434    441.40671   -400.81498    672.34803    271.53305    929.73044   -400.81498            0   -9.2373798            0            0            0            0            0            0 
10083000     832.9218    55030.643    464.96657   -417.18741    708.23425    291.04684    959.52112   -417.18741            0   -9.5163262            0            0            0            0            0            0 
10084000    815.83395    56230.438    464.38527   -409.98093    707.34883     297.3679    966.40335   -409.98093            0   -9.3132752            0            0            0            0            0            0 
10085000    908.88016    53548.101    476.15169   -430.33331    725.27137    294.93806    1004.7227   -430.33331            0   -9.7797967            0            0            0            0            0            0 
10086000     901.1178    55456.253    432.34372   -402.02448    658.54333    256.51885     985.3182   -402.02448            0   -9.4432912            0            0            0            0            0            0 
10087000    785.26158    55696.149    454.71195   -421.70227    692.61449    270.91222    908.75758   -421.70227            0   -9.4026169            0            0            0            0            0            0 
10088000    1008.7639    54461.441      462.983   -403.41238     705.2129    301.80051    1103.0256   -403.41238            0   -9.6157857            0            0            0            0            0            0 
10089000    840.22465    55590.608     469.3376   -409.59871    714.89219    305.29348    986.49049   -409.59871            0    -9.420468            0            0            0            0            0            0 
10090000    1035.5706    53437.365    465.13968   -416.58115    708.49794    291.91679    1098.9671   -416.58115            0   -9.8000631            0            0            0            0            0            0 
10091000    640.49805    57152.093    475.12604   -430.73468     723.7091    292.97441    826.83252   -430.73468            0    -9.163086            0            0            0            0            0            0 
10092000    763.33545    55886.891    442.52213   -421.63731    674.04703    252.40972    874.56855   -421.63731            0   -9.3705257            0            0            0            0            0            0 
10093000    972.67244    54959.554    454.06335   -399.40253    691.62654      292.224    1071.8489   -399.40253            0   -9.5286353            0            0            0            0            0            0 
10094000    956.71545    55878.139    491.45098   -396.53736    748.57515    352.03779    1131.6895   -396.53736            0   -9.3719933            0            0            0            0            0            0 
10095000    958.70952    52776.642    440.30477   -431.51554    670.66956    239.15402    977.06619   -431.51554            0   -9.9227524            0            0            0            0            0            0 
10096000    777.00336    56024.177    451.01882   -411.37497    686.98913    275.61416    910.46875   -411.37497            0   -9.3475635            0            0            0            0            0            0 
10097000    861.19198    54151.947    444.15225   -424.13367    676.53002    252.39635    932.52324   -424.13367            0   -9.6707427            0            0            0            0            0            0 
10098000    892.63283    52235.538    457.92689    -445.5759    697.51146    251.93555    931.94481    -445.5759            0   -10.025541            0            0            0            0            0            0 
10099000    836.86071    57645.141    448.20731   -389.44417    682.70666    293.26249    996.80731   -389.44417            0   -9.0847128            0            0            0            0            0            0 
10100000    867.20928    55573.631    464.71296   -402.23215    707.84797    305.61582    1008.4754   -402.23215            0   -9.4233459            0            0            0            0            0            0 
10101000    867.96361    56508.743    444.64748   -394.70585    677.28435     282.5785    997.88645   -394.70585            0   -9.2674074            0            0            0            0            0            0 
10102000    862.29021    53205.623     459.4978   -435.63584    699.90426    264.26842    933.36202   -435.63584            0    -9.842748            0            0            0            0            0            0 
10103000    852.82489    56731.541    454.41824   -401.43183    692.16711    290.73529    996.33816   -401.43183            0   -9.2310121            0            0            0            0            0            0 
10104000    821.12643    56142.441    442.32507   -407.50149    673.74687    266.24538    938.56721   -407.50149            0   -9.3278728            0            0            0            0            0            0 
10105000    985.82386    52631.089    458.72445   -431.36764    698.72629    267.35866    1024.0479   -431.36764            0    -9.950194            0            0            0            0            0            0 
10106000    916.91948    55552.673    461.94623   -412.52985    703.63369    291.10385    1033.9725   -412.52985            0    -9.426901            0            0            0            0            0            0 
10107000    827.41776    53830.257    465.46925   -433.23131    708.99993    275.76862    925.34045   -433.23131            0    -9.728535            0            0            0            0            0            0 
10108000    994.29671    52733.086    434.33275   -423.77635    661.57302    237.79667    1002.4685   -423.77635            0   -9.9309483            0            0            0            0            0            0 
10109000    875.13245    55693.024    486.74728   -417.15628    741.41051    324.25423    1035.0592   -417.15628            0   -9.4031444            0            0            0            0            0            0 
10110000    898.58797    55495.537    451.08137   -399.42832     687.0844    287.65608    1014.9242   -399.42832            0   -9.4366064            0            0            0            0            0            0 
10111000    697.59442    58254.481    465.83465   -401.07601    709.55651     308.4805    901.14405   -401.07601            0    -8.989687            0            0            0            0            0            0 
10112000    907.65672    54436.604    448.94146    -420.7404    683.82491    263.08451    983.67503    -420.7404            0   -9.6201729            0            0            0            0            0            0 
10113000    809.84161     55836.34    477.68087   -412.26012    727.60061    315.34048    974.80726   -412.26012            0   -9.3790091            0            0            0            0            0            0 
10114000    911.93225     54504.42    463.67396   -413.70014    706.26536    292.56522     1017.452   -413.70014            0   -9.6082033            0            0            0            0            0            0 
10115000    926.22597    54163.879    432.43286   -415.39625     658.6791    243.28285    974.93154   -415.39625            0   -9.6686123            0            0            0            0            0            0 
10116000    781.37237    55105.238     474.0808   -426.16494      722.117    295.95206    923.90461   -426.16494            0    -9.503444            0            0            0            0            0            0 
10117000    908.64089    52963.701    426.61912   -424.32521    649.82366    225.49845    927.35199   -424.32521            0   -9.8877068            0            0            0            0            0            0 
10118000    924.67747    56020.965    457.45735   -393.15398    696.79626    303.64228    1059.1115   -393.15398            0   -9.3480993            0            0            0            0            0            0 
10119000    882.09419    55138.371     475.8013   -416.03855    724.73766    308.69912    1018.0233   -416.03855            0   -9.4977333            0            0            0            0            0            0 
10120000    787.33841    55599.077    465.19631   -418.65053    708.58419    289.93366    928.35134   -418.65053            0   -9.4190331            0            0            0            0            0            0 
10121000    906.99439    53844.291    444.78691   -420.04343    677.49672    257.45329    969.68312   -420.04343            0   -9.7259994            0            0            0            0            0            0 
10122000    882.71836    56010.903    444.25197   -408.99185    676.68191    267.69006    988.74876   -408.99185            0   -9.3497787            0            0            0            0            0            0 
10123000    825.04067    55104.923    457.81055   -423.44359    697.33426    273.89067     936.9336   -423.44359            0   -9.5034984            0            0            0            0            0            0 
10124000    832.02073    55933.952    427.34603   -408.33085    650.93088    242.60004    921.31206   -408.33085            0   -9.3626416            0            0            0            0            0            0 
10125000    904.43532    54380.506    469.53919   -414.37245    715.19925     300.8268    1018.1199   -414.37245            0    -9.630097            0            0            0            0            0            0 
10126000     873.3106    55787.223    471.62365   -408.40556    718.37428    309.96872    1020.4937   -408.40556            0   -9.3872668            0            0            0            0            0            0 
10127000    898.91249    55102.087    455.16746   -413.46437    693.30831    279.84394    1002.2167   -413.46437            0   -9.5039875            0            0            0            0            0            0 
10128000    868.17428    55104.891    443.06853   -414.73142     674.8793    260.14787    957.85467   -414.73142            0   -9.5035039            0            0            0            0            0            0 
10129000    1146.3965    51823.206    495.16573   -426.05788    754.23343    328.17555    1194.6086   -426.05788            0    -10.10531            0            0            0            0            0            0 
10130000     807.5853    57450.328    479.41514   -395.78898    730.24223    334.45325    1011.0919   -395.78898            0   -9.1155188            0            0            0            0            0            0 
10131000    806.66295    55424.089    427.23349   -406.95796    650.75945     243.8015    895.82997   -406.95796            0   -9.4487714            0            0            0            0            0            0 
10132000    893.14386    53743.044    451.05912   -421.77997    687.05052    265.27055    965.30525   -421.77997            0   -9.7443223            0            0            0            0            0            0 
10133000    936.98268     55515.07     486.4521   -404.75741    740.96089    336.20348    1094.8131   -404.75741            0   -9.4332863            0            0            0            0            0            0 
10134000     924.6484    56487.658    486.32448   -397.94844    740.76651    342.81806    1104.5569   -397.94844            0   -9.2708666            0            0            0            0            0            0 
10135000      782.459    54924.315    466.58135   -435.96605    710.69389    274.72783    901.48907   -435.96605            0   -9.5347488            0            0            0            0            0            0 
10136000    858.13883    54285.191    456.38904   -419.82727    695.16901    275.34174    954.72496   -419.82727            0   -9.6470056            0            0            0            0            0            0 
10137000     863.0444    56876.651    452.17917   -389.57234    688.75657    299.18423    1015.0689   -389.57234            0    -9.207461            0            0            0            0            0            0 
10138000    974.12113    53245.301    466.29049    -426.5167    710.25085    283.73415    1040.1666    -426.5167            0   -9.8354133            0            0            0            0            0            0 
10139000    755.76232    55714.978    464.54862   -419.37389    707.59763    288.22374    902.31525   -419.37389            0   -9.3994391            0            0            0            0            0            0 
10140000    839.04691    55985.478    462.46973   -412.78612    704.43109    291.64497    976.71903   -412.78612            0   -9.3540248            0            0            0            0            0            0 
10141000    1048.8344    52646.587    445.87822   -422.14498      679.159    257.01401    1062.3054   -422.14498            0   -9.9472648            0            0            0            0            0            0 
10142000    916.07088    56261.085    447.69206   -390.20534    681.92183     291.7165     1043.362   -390.20534            0   -9.3082019            0            0            0            0            0            0 
10143000    864.39627    53405.151    409.23679   -424.44479      623.347    198.90222    872.14534   -424.44479            0   -9.8059744            0            0            0            0            0            0 
10144000    791.91354    55578.572    436.09438   -419.62565    664.25631    244.63066     886.5213   -419.62565            0   -9.4225081            0            0            0            0            0            0 
10145000     920.5069    55108.132    439.30254   -405.93154    669.14297    263.21143    1003.0188   -405.93154            0    -9.502945            0            0            0            0            0            0 
10146000    841.59934    55010.889      433.744   -420.86838    660.67623    239.80784    915.00397   -420.86838            0   -9.5197434            0            0            0            0            0            0 
10147000    864.28321    52845.756    458.84078   -439.52884    698.90349    259.37465    925.47871   -439.52884            0   -9.9097749            0            0            0            0            0            0 
10148000    791.86523     55177.65    444.90407   -423.89753    677.67519    253.77766    890.99908   -423.89753            0   -9.4909722            0            0            0            0            0            0 
10149000    791.61732     56753.13      454.306   -409.52545    691.99614    282.47069    937.68141   -409.52545            0   -9.2275007            0            0            0            0            0            0 
10150000    941.30765    52714.514      465.934   -429.30719    709.70784    280.40065    1004.0658   -429.30719            0   -9.9344469            0            0            0            0            0            0 
10151000    821.29226    55152.268    469.55226   -429.28544    715.21915    285.93371    946.53131   -429.28544            0   -9.4953402            0            0            0            0            0            0 
10152000    893.71665     55500.49    448.11227   -400.86485    682.56189    281.69704    1005.0871   -400.86485            0   -9.4357643            0            0            0            0            0            0 
10153000    805.09387    55342.342    459.85784   -415.38867    700.45267      285.064    934.86435   -415.38867            0   -9.4627284            0            0            0            0            0            0 
10154000    880.99577     55851.61    443.04262   -408.28867    674.83982    266.55116    984.15608   -408.28867            0   -9.3764449            0            0            0            0            0            0 
10155000    950.30031      53426.7    472.08076   -412.61155    719.07054      306.459    1046.9079   -412.61155            0   -9.8020192            0            0            0            0            0            0 
10156000    937.71393    55589.335    451.13208   -395.87781    687.16165    291.28385    1051.5011   -395.87781            0   -9.4206838            0            0            0            0            0            0 
10157000    860.51845     53001.38    458.50571   -438.57607    698.39312    259.81706    924.97266   -438.57607            0   -9.8806775            0            0            0            0            0            0 
10158000    924.19655    55612.382    447.57812   -398.45213    681.74828    283.29615    1032.8653   -398.45213            0   -9.4167796            0            0            0            0            0            0 
10159000    1007.0663    53681.014    484.54228   -412.24941    738.05187    325.80246    1114.2171   -412.24941            0   -9.7555823            0            0            0            0            0            0 
10160000    835.60731    54955.011    445.63267   -419.28582    678.78498    259.49916    929.20706   -419.28582            0   -9.5294229            0            0            0            0            0            0 
10161000    870.95999     55312.97    445.14887   -408.36488    678.04806    269.68317    972.27173   -408.36488            0   -9.4677532            0            0            0            0            0            0 
10162000    865.06025    58025.462    437.84107    -386.0465    666.91687    280.87037    1012.9206    -386.0465            0   -9.0251681            0            0            0            0            0            0 
10163000    1046.3836    52762.664    466.66526   -419.64623    710.82169    291.17546    1096.3565   -419.64623            0    -9.925381            0            0            0            0            0            0 
10164000    880.27115    53645.007    477.76027   -429.02915    727.72154    298.69238    987.37904   -429.02915            0   -9.7621302            0            0            0            0            0            0 
10165000    971.23122    54871.184    482.22451   -408.03857    734.52145    326.48288    1103.7009   -408.03857            0   -9.5439812            0            0            0            0            0            0 
10166000    851.56639    56355.143    467.99661   -404.95946    712.84959    307.89014    1007.7772   -404.95946            0   -9.2926664            0            0            0            0            0            0 
10167000     904.4149    55433.503     423.6966   -398.24131    645.37208    247.13077    978.29666   -398.24131            0   -9.4471667            0            0            0            0            0            0 
10168000    921.86488    54148.874    440.76218   -419.19089    671.36628    252.17539    980.17741   -419.19089            0   -9.6712916            0            0            0            0            0            0 
10169000    793.53815    55567.333    463.39818   -425.94288     705.8453    279.90241    922.97982   -425.94288            0    -9.424414            0            0            0            0            0            0 
10170000    843.44378    54070.453     437.4664   -426.67817    666.34617      239.668     904.7758   -426.67817            0   -9.6853183            0            0            0            0            0            0 
10171000    904.38122    54125.417    451.66396   -417.57149    687.97181    270.40032    984.28601   -417.57149            0   -9.6754829            0            0            0            0            0            0 
10172000    761.20668    56226.195    482.49242   -414.68487    734.92952    320.24465    944.43518   -414.68487            0   -9.3139781            0            0            0            0            0            0 
10173000    922.22197    54191.676    488.46116   -425.54959    744.02108    318.47149    1047.3312   -425.54959            0   -9.6636529            0            0            0            0            0            0 
10174000    823.87345    55361.515    462.07814   -417.30642    703.83462     286.5282    951.71614   -417.30642            0    -9.459451            0            0            0            0            0            0 
10175000    1007.6458    53138.392    442.37401   -418.07723    673.82141    255.74418    1036.6384   -418.07723            0   -9.8552012            0            0            0            0            0            0 
10176000    752.47571    58059.036    481.42728   -408.44816    733.30712    324.85896    962.00384   -408.44816            0   -9.0199491            0            0            0            0            0            0 
10177000    846.66212    55160.544    432.90232   -406.99554    659.39419    252.39865    933.50443   -406.99554            0   -9.4939155            0            0            0            0            0            0 
10178000    835.52627    55194.386    452.53396   -419.18126    689.29698    270.11572    942.67551   -419.18126            0   -9.4880945            0            0            0            0            0            0 
10179000    940.27165    54927.728    464.30584   -409.63248    707.22785    297.59537    1050.8137   -409.63248            0   -9.5341562            0            0            0            0            0            0 
10180000    932.74058    54528.598    466.55867   -414.65791    710.65934    296.00142    1037.7575   -414.65791            0    -9.603943            0            0            0            0            0            0 
10181000    886.76159    52613.789    469.46454   -452.70112    715.08554    262.38442    942.81268   -452.70112            0   -9.9534657            0            0            0            0            0            0 
10182000    834.85439    55654.953    473.57744   -413.46229    721.35028    307.88799    985.51459   -413.46229            0   -9.4095766            0            0            0            0            0            0 
10183000    865.10942    56054.056    478.56537   -413.82496    728.94788    315.12292     1022.342   -413.82496            0   -9.3425808            0            0            0            0            0            0 
10184000    860.73585    53865.612    437.89245   -425.74156    666.99513    241.25356    917.42587   -425.74156            0   -9.7221497            0            0            0            0            0            0 
10185000    896.89612    55780.902    446.46236   -397.66128    680.04876    282.38747     1012.019   -397.66128            0   -9.3883306            0            0            0            0            0            0 
10186000    1031.1384    53886.291    461.76939   -402.81246    703.36433    300.55187    1110.8991   -402.81246            0   -9.7184188            0            0            0            0            0            0 
10187000    973.52787     54427.54    470.91451   -410.88254    717.29413    306.41159    1079.1687   -410.88254            0    -9.621775            0            0            0            0            0            0 
10188000    819.16332    55463.257    463.12746   -409.49144    705.43293     295.9415    958.54199   -409.49144            0   -9.4420987            0            0            0            0            0            0 
10189000    906.32288     55435.66    442.88264   -403.39635    674.59615     271.1998    1003.9367   -403.39635            0   -9.4467991            0            0            0            0            0            0 
10190000    929.56712    54383.582    449.37346   -409.43884    684.48293    275.04409    1012.3105   -409.43884            0   -9.6295522            0            0            0            0            0            0 
10191000    902.03313     54166.66    446.53092   -414.23442    680.15319    265.91877    978.49353   -414.23442            0   -9.6681159            0            0            0            0            0            0 
10192000    1018.9355    52353.093    458.05933   -418.62953    697.71319    279.08367    1057.0574   -418.62953            0    -10.00303            0            0            0            0            0            0 
10193000    892.98543    55882.065    450.82583   -405.75071    686.69517    280.94446    1008.7121   -405.75071            0   -9.3713349            0            0            0            0            0            0 
10194000    829.19038    54029.762    465.93208    -431.9922    709.70492    277.71272    931.08875    -431.9922            0   -9.6926124            0            0            0            0            0            0 
10195000    868.91894     53155.03    451.56095   -432.40137    687.81491    255.41353    929.00957   -432.40137            0   -9.8521164            0            0            0            0            0            0 
10196000    915.00454        56239    501.87963   -404.04448    764.46001    360.41553    1110.8914   -404.04448            0   -9.3118574            0            0            0            0            0            0 
10197000    924.57469        55630    450.36769   -403.57096    685.99733    282.42638    1032.5398   -403.57096            0   -9.4137973            0            0            0            0            0            0 
10198000     950.6694    53322.949    447.79385   -422.43683    682.07688    259.64005    998.93812   -422.43683            0   -9.8210911            0            0            0            0            0            0 
10199000    752.64109    56679.404    446.68649    -419.3683    680.39015    261.02186    883.16324    -419.3683            0   -9.2395034            0            0            0            0            0            0 
10200000     849.7603     55360.61    410.87462   -399.00398    625.84174    226.83776    912.91528   -399.00398            0   -9.4596057            0            0            0            0            0            0 
10201000    856.32998    54939.303    445.82538   -421.77246    679.07852    257.30606    943.42623   -421.77246            0   -9.5321475            0            0            0            0            0            0 
10202000    769.33951    54832.284    468.61833   -436.53326    713.79659    277.26333    892.48307   -436.53326            0    -9.550752            0            0            0            0            0            0 
10203000    861.23187     54508.96    443.94733   -408.77744    676.21788    267.44044    952.08298   -408.77744            0    -9.607403            0            0            0            0            0            0 
10204000    986.18406    54016.432    452.71081   -416.52615    689.56636    273.04021    1049.9306   -416.52615            0   -9.6950044            0            0            0            0            0            0 
10205000    884.93321    55779.574    470.49514   -409.14535    716.65534    307.50999    1027.3924   -409.14535            0   -9.3885541            0            0            0            0            0            0 
10206000    886.87127    54254.668     439.3928   -415.11533    669.28045    254.16512    955.90084   -415.11533            0   -9.6524329            0            0            0            0            0            0 
10207000    904.07501    55586.188    455.16665   -411.00419    693.30708    282.30289    1015.2072   -411.00419            0   -9.4212171            0            0            0            0            0            0 
10208000     995.6966    54573.057    481.64538    -406.1685    733.63931    327.47082    1119.9378    -406.1685            0   -9.5961189            0            0            0            0            0            0 
10209000    798.27844    56382.015     446.9347   -411.72196    680.76823    269.04627    925.44976   -411.72196            0   -9.2882375            0            0            0            0            0            0 
10210000    1068.9164    51939.961    467.44452   -427.00966    712.00866      284.999    1094.6936   -427.00966            0   -10.082594            0            0            0            0            0            0 
10211000    855.54319    58116.396    447.11955   -391.40329    681.04978    289.64649    1014.7775   -391.40329            0   -9.0110465            0            0            0            0            0            0 
10212000    836.31067    54291.925    464.85915   -429.77194    708.07064     278.2987    940.48283   -429.77194            0   -9.6458091            0            0            0            0            0            0 
10213000    678.99792    55882.308    433.45516   -423.77057    660.23626    236.46569    789.83958   -423.77057            0   -9.3712942            0            0            0            0            0            0 
10214000    956.85061    56022.687    452.69109    -389.3044    689.53632    300.23192    1082.0108    -389.3044            0    -9.347812            0            0            0            0            0            0 
10215000     973.3584    53260.661    478.70588    -424.2244    729.16189    304.93748    1060.9957    -424.2244            0   -9.8325769            0            0            0            0            0            0 
10216000    765.85252    56628.687    470.11267   -414.67513    716.07277    301.39764    933.89326   -414.67513            0   -9.2477783            0            0            0            0            0            0 
10217000    729.70493    56010.466     466.5136   -424.64164    710.59069    285.94905    882.01231   -424.64164            0   -9.3498517            0            0            0            0            0            0 
10218000    1063.9668    52699.742    461.04731   -415.26649    702.26447    286.99798    1104.7328   -415.26649            0   -9.9372317            0            0            0            0            0            0 
10219000    871.89502    57088.589    464.46351   -396.71901      707.468    310.74899    1036.6701   -396.71901            0   -9.1732788            0            0            0            0            0            0 
10220000    952.88359    53410.446    486.45734   -427.61848    740.96887    313.35039    1055.5863   -427.61848            0   -9.8050023            0            0            0            0            0            0 
10221000    923.44621    57310.296    450.34617   -381.72669    685.96455    304.23786    1076.0652   -381.72669            0   -9.1377917            0            0            0            0            0            0 
10222000    778.55294    54218.137    442.00068   -430.62142    673.25275    242.63133    858.24553   -430.62142            0   -9.6589366            0            0            0            0            0            0 
10223000     835.0994    54472.866    457.25899   -423.64443    696.49412    272.84969    936.27844   -423.64443            0   -9.6137689            0            0            0            0            0            0 
10224000    926.82127    55825.623    478.80071   -402.62828    729.30634    326.67806    1081.2584   -402.62828            0   -9.3808097            0            0            0            0            0            0 
10225000    1007.9703     54293.85    477.63861   -412.14212    727.53623    315.39411    1113.5253   -412.14212            0   -9.6454671            0            0            0            0            0            0 
10226000    891.82868    56962.246    459.87661   -395.25744    700.48127    305.22382     1046.098   -395.25744            0   -9.1936253            0            0            0            0            0            0 
10227000     933.2725    54644.787    462.45297   -410.67373    704.40556    293.73183    1037.4923   -410.67373            0   -9.5835225            0            0            0            0            0            0 
10228000    1011.8581    53269.106    478.91635   -423.95062    729.48248    305.53185    1091.6194   -423.95062            0   -9.8310182            0            0            0            0            0            0 
10229000    877.66568    55778.984    440.06446   -402.78649    670.30352    267.51704    981.47987   -402.78649            0   -9.3886533            0            0            0            0            0            0 
10230000    930.39045     54182.94    464.88252   -422.14848    708.10624    285.95776    1021.1547   -422.14848            0   -9.6652109            0            0            0            0            0            0 
10231000    1033.3933    53914.172    457.94429   -400.97749    697.53796    296.56047    1109.0999   -400.97749            0   -9.7133931            0            0            0            0            0            0 
10232000    900.79287    54417.499    464.09705   -422.86963    706.90981    284.04018    998.93049   -422.86963            0   -9.6235504            0            0            0            0            0            0 
10233000    832.07186    57474.604    445.37694   -391.43466    678.39546     286.9608    984.41021   -391.43466            0   -9.1116686            0            0            0            0            0            0 
10234000    812.49702    55173.397    456.71479   -416.68511     695.6652    278.98009     932.7537   -416.68511            0   -9.4917039            0            0            0            0            0            0 
10235000    877.33444     54900.56    458.76218   -427.74836    698.78377    271.03542    973.48934   -427.74836            0   -9.5388744            0            0            0            0            0            0 
10236000    958.19954     54880.85    441.31008   -398.91527    672.20084    273.28557    1040.2102   -398.91527            0   -9.5423001            0            0            0            0            0            0 
10237000    736.33384    57490.244    444.84009   -402.86928    677.57773    274.70845    892.07742   -402.86928            0   -9.1091899            0            0            0            0            0            0 
10238000    902.04529    57500.122    453.28653   -381.03207    690.44329    309.41123    1065.8486   -381.03207            0   -9.1076249            0            0            0            0            0            0 
10239000     946.1737    54836.504    470.73616   -402.49109    717.02246    314.53138    1071.2188   -402.49109            0    -9.550017            0            0            0            0            0            0 
10240000    1030.7943      53406.3    495.15316   -415.02156    754.21428    339.19272    1142.0538   -415.02156            0   -9.8057635            0            0            0            0            0            0 
10241000    881.32374    56808.343     459.1423   -388.79724    699.36277    310.56553    1040.7347   -388.79724            0   -9.2185323            0            0            0            0            0            0 
10242000    915.30087    53759.052      462.327   -427.72265    704.21368    276.49103     994.1058   -427.72265            0   -9.7414208            0            0            0            0            0            0 
10243000    860.82593    56081.398    438.27705   -400.48348    667.58095    267.09747     971.1581   -400.48348            0   -9.3380258            0            0            0            0            0            0 
10244000      900.102    53383.935    460.50326   -432.37756    701.43578    269.05821    969.83257   -432.37756            0   -9.8098715            0            0            0            0            0            0 
10245000    855.48637    56856.083    473.74788    -403.7393     721.6099     317.8706    1027.2293    -403.7393            0   -9.2107919            0            0            0            0            0            0 
10246000    950.77802     54217.84    466.41856   -421.98756    710.44592    288.45836    1040.2496   -421.98756            0   -9.6589895            0            0            0            0            0            0 
10247000    938.14112     56406.16    464.61364   -390.51175    707.69668    317.18493    1088.9242   -390.51175            0   -9.2842616            0            0            0            0            0            0 
10248000    1104.3323    52806.133    468.64346   -416.11324    713.83488    297.72164    1148.1936   -416.11324            0   -9.9172107            0            0            0            0            0            0 
10249000    991.07287    55973.671    471.12941    -398.8749    717.62146    318.74656    1127.7778    -398.8749            0   -9.3559978            0            0            0            0            0            0 
10250000    928.12851    53913.254    456.67061   -414.69863     695.5979    280.89927    1010.6584   -414.69863            0   -9.7135585            0            0            0            0            0            0 
10251000    788.03509    55120.197    446.29821   -421.95341    679.79873    257.84532     891.3243   -421.95341            0   -9.5008649            0            0            0            0            0            0 
10252000    850.63726    54803.724    460.47391   -416.93473    701.39106    284.45634    964.33336   -416.93473            0   -9.5557291            0            0            0            0            0            0 
10253000     914.9979    55109.266    447.32757   -412.18296    681.36664    269.18368    1004.5786   -412.18296            0   -9.5027494            0            0            0            0            0            0 
10254000    810.09745    57603.136    480.76599   -404.65711    732.29983    327.64273    1008.1915   -404.65711            0   -9.0913374            0            0            0            0            0            0 
10255000    1050.7583    51725.203    436.27491   -430.14657    664.53129    234.38472    1027.0337   -430.14657            0   -10.124456            0            0            0            0            0            0 
10256000    828.06398     58537.74    475.26829   -388.12018    723.92578     335.8056    1042.7345   -388.12018            0   -8.9461866            0            0            0            0            0            0 
10257000    886.26293    52875.027    442.88729   -437.38946    674.60323    237.21377    920.63596   -437.38946            0   -9.9042889            0            0            0            0            0            0 
10258000    946.79564    55601.566    429.99392   -394.47771    654.96413    260.48642    1028.2352   -394.47771            0   -9.4186114            0            0            0            0            0            0 
10259000    860.20796     55162.58    454.80741   -410.87346    692.75988    281.88643    973.91483   -410.87346            0   -9.4935651            0            0            0            0            0            0 
10260000    894.92771    55875.698    471.44715   -402.38652    718.10543    315.71891    1044.9863   -402.38652            0   -9.3724027            0            0            0            0            0            0 
10261000    872.98878    54545.816     474.0308   -417.34471    722.04084    304.69613    999.15415   -417.34471            0   -9.6009113            0            0            0            0            0            0 
10262000    1040.1112    55740.687    471.60584   -382.69164    718.34715    335.65551    1181.1835   -382.69164            0   -9.3951039            0            0            0            0            0            0 
10263000     975.5303    52618.869    466.41391   -422.87456    710.43883    287.56428    1036.1787   -422.87456            0   -9.9525048            0            0            0            0            0            0 
10264000    812.94506    56372.485    450.29302   -402.42035     685.8836    283.46324    951.81372   -402.42035            0   -9.2898077            0            0            0            0            0            0 
10265000    754.68243    56973.491    457.80637   -413.60501    697.32789    283.72289    910.78847   -413.60501            0   -9.1918107            0            0            0            0            0            0 
10266000    923.95802    53711.082    454.63156   -423.85411    692.49203    268.63792    992.39368   -423.85411            0   -9.7501209            0            0            0            0            0            0 
10267000    983.44059    55043.295    493.02993   -399.46503     750.9802    351.51516    1140.9721   -399.46503            0   -9.5141387            0            0            0            0            0            0 
10268000     1016.598    56758.837     464.7284   -382.55966    707.87149    325.31182    1166.8206   -382.55966            0   -9.2265729            0            0            0            0            0            0 
10269000    1050.2596    54540.308    463.46316   -397.32418    705.94427     308.6201    1144.0117   -397.32418            0   -9.6018809            0            0            0            0            0            0 
10270000    968.88697    54398.408    461.98841   -403.93548    703.69794    299.76246    1068.4241   -403.93548            0   -9.6269277            0            0            0            0            0            0 
10271000    937.45749    56082.225    476.72481   -404.98881    726.14434    321.15554    1087.9036   -404.98881            0   -9.3378882            0            0            0            0            0            0 
10272000    755.29239     54381.35    454.60953   -437.87499    692.45847    254.58348    853.60302   -437.87499            0   -9.6299474            0            0            0            0            0            0 
10273000    683.97336     56167.56    424.68889   -421.27946    646.88355    225.60409    785.87829   -421.27946            0   -9.3237012            0            0            0            0            0            0 
10274000    887.02066      55492.5    450.21248   -414.80718    685.76093    270.95374    988.82063   -414.80718            0   -9.4371229            0            0            0            0            0            0 
10275000    953.37608    54123.804    450.99367   -415.56723    686.95082    271.38359    1023.9216   -415.56723            0   -9.6757713            0            0            0            0            0            0 
10276000    975.34339    54485.204    461.96711   -404.51621    703.66551     299.1493    1074.1677   -404.51621            0    -9.611592            0            0            0            0            0            0 
10277000     954.1647    53395.752    464.82469   -417.97384    708.01814     290.0443    1033.0736   -417.97384            0   -9.8077005            0            0            0            0            0            0 
10278000    777.45115    56040.859    484.21719   -415.07866    737.55669    322.47803    957.88765   -415.07866            0   -9.3447809            0            0            0            0            0            0 
10279000      863.018    56498.532    465.59532   -402.15495    709.19197    307.03702    1018.1407   -402.15495            0   -9.2690824            0            0            0            0            0            0 
10280000    902.50052    52045.613    454.45345   -446.02389    692.22074    246.19685    931.22352   -446.02389            0   -10.062127            0            0            0            0            0            0 
10281000    790.49936    57439.021     472.6378   -406.18404    719.91903    313.73498    975.92776   -406.18404            0   -9.1173133            0            0            0            0            0            0 
10282000    934.20888    53898.811    477.08122    -424.0122    726.68722    302.67503    1037.0182    -424.0122            0   -9.7161614            0            0            0            0            0            0 
10283000    985.18148    55792.774    485.32513   -389.35921     739.2443     349.8851    1151.5079   -389.35921            0   -9.3863328            0            0            0            0            0            0 
10284000    880.00629    53911.322    463.31706   -423.31178    705.72173    282.40995    974.30727   -423.31178            0   -9.7139065            0            0            0            0            0            0 
10285000     916.8296    54066.587    449.68172   -417.68102    684.95247    267.27145    990.19683   -417.68102            0   -9.6860107            0            0            0            0            0            0 
10286000    963.59926    53668.666    455.70715   -420.30955    694.13036    273.82081    1028.0323   -420.30955            0   -9.7578267            0            0            0            0            0            0 
10287000    872.89355    55717.417      472.573   -410.60812    719.82033    309.21222    1018.5093   -410.60812            0   -9.3990277            0            0            0            0            0            0 
10288000    880.08992    56509.398    479.72908   -398.23875    730.72043    332.48168    1057.7916   -398.23875            0   -9.2673001            0            0            0            0            0            0 
10289000    919.27166     54626.58     468.9074   -418.38218    714.23691    295.85474    1028.2133   -418.38218            0   -9.5867167            0            0            0            0            0            0 
10290000    861.12035    56188.865    456.21257   -400.80446    694.90022    294.09576    999.74682   -400.80446            0    -9.320166            0            0            0            0            0            0 
10291000    871.74023    57242.644    459.01589   -390.78863    699.17022    308.38159    1036.1323   -390.78863            0   -9.1485911            0            0            0            0            0            0 
10292000    943.69902    54905.307    466.22753   -412.30792    710.15495    297.84703    1053.5023   -412.30792            0   -9.5380497            0            0            0            0            0            0 
10293000    914.58504    54550.656    450.08429   -414.52315    685.56566     271.0425    998.65469   -414.52315            0   -9.6000594            0            0            0            0            0            0 
10294000    853.06951    57649.659    459.80447   -391.02912    700.37139    309.34227      1026.57   -391.02912            0   -9.0840007            0            0            0            0            0            0 
10295000    981.36449    52217.597     466.5218   -439.56673    710.60318    271.03645    1018.3849   -439.56673            0   -10.028986            0            0            0            0            0            0 
10296000    908.17085    54857.324    433.96666   -399.29347    661.01538    261.72191    988.29292   -399.29347            0   -9.5463924            0            0            0            0            0            0 
10297000    549.85252    55878.773    422.63674    -442.5595    643.75771    201.19822    649.29205    -442.5595            0   -9.3718869            0            0            0            0            0            0 
10298000    686.28606    56074.004    444.78871   -425.29159    677.49946    252.20787    813.44015   -425.29159            0   -9.3392572            0            0            0            0            0            0 
10299000    947.61396    55640.387    467.38667   -404.41914    711.92053    307.50139    1076.4503   -404.41914            0     -9.41204            0            0            0            0            0            0 
10300000    994.94605    53454.238    448.96812   -415.15124    683.86552    268.71428    1044.3496   -415.15124            0   -9.7969696            0            0            0            0            0            0 
10301000    986.95381    54738.792    485.61732   -408.32948    739.68935    331.35987    1119.2541   -408.32948            0   -9.5670644            0            0            0            0            0            0 
10302000    860.70754    55927.293    475.78824   -410.78546    724.71777    313.93231    1015.9617   -410.78546            0   -9.3637563            0            0            0            0            0            0 
10303000    930.82763    53622.418    455.54506   -421.15105    693.88347    272.73243    1000.6657   -421.15105            0   -9.7662426            0            0            0            0            0            0 
10304000    943.40179    56227.544     470.0335   -398.27206    715.95218    317.68012    1091.2894   -398.27206            0   -9.3137547            0            0            0            0            0            0 
10305000    874.23286    54993.783    495.73549   -425.66405    755.10129    329.43724    1030.5964   -425.66405            0   -9.5227044            0            0            0            0            0            0 
10306000    885.56012    56992.393    455.05201   -385.42601    693.13246    307.70645    1043.7624   -385.42601            0   -9.1887622            0            0            0            0            0            0 
10307000    1084.6032    52918.551    468.51327   -414.38343    713.63656    299.25314    1136.3095   -414.38343            0   -9.8961429            0            0            0            0            0            0 
10308000    1001.5523    54982.816    436.52679   -398.57761    664.91496    266.33735      1069.45   -398.57761            0    -9.524604            0            0            0            0            0            0 
10309000      902.956    55736.131      475.005   -403.87366    723.52473    319.65107    1053.6227   -403.87366            0   -9.3958719            0            0            0            0            0            0 
10310000     959.6813    56178.928    479.24336   -394.27279    729.98058     335.7078    1121.9862   -394.27279            0   -9.3218145            0            0            0            0            0            0 
10311000    822.29905    54944.389    453.32499   -418.10257    690.50187     272.3993    931.31374   -418.10257            0   -9.5312652            0            0            0            0            0            0 
10312000    949.57006    53895.618    441.08236   -414.30292    671.85397    257.55105    1003.9248   -414.30292            0    -9.716737            0            0            0            0            0            0 
10313000    872.99171    55630.084    473.02009   -413.98315    720.50133    306.51818    1014.7831   -413.98315            0   -9.4137831            0            0            0            0            0            0 
10314000    925.44911    54664.036    493.71421   -418.80797    752.02249    333.21452         1071   -418.80797            0   -9.5801478            0            0            0            0            0            0 
10315000    786.94996    56185.106    473.20512   -416.82091    720.78317    303.96227    948.79075   -416.82091            0   -9.3207894            0            0            0            0            0            0 
10316000    928.99119    55200.608    462.24387   -401.22014    704.08705    302.86692    1050.7459   -401.22014            0   -9.4870249            0            0            0            0            0            0 
10317000    980.93866    54808.534    458.85744   -414.15282    698.92887    284.77605    1068.8661   -414.15282            0   -9.5548906            0            0            0            0            0            0 
10318000    919.47639    56085.802     466.1332   -401.17327    710.01126    308.83799    1060.9273   -401.17327            0   -9.3372926            0            0            0            0            0            0 
10319000    937.28545    53578.732    424.28666   -413.13571    646.27086    233.13515    965.52144   -413.13571            0   -9.7742056            0            0            0            0            0            0 
10320000    879.61142    57646.735    485.32476   -389.73481    739.24374    349.50892    1089.0145   -389.73481            0   -9.0844615            0            0            0            0            0            0 
10321000    1032.4292    53311.646     437.0408   -413.02688     665.6979    252.67102    1055.3803   -413.02688            0   -9.8231734            0            0            0            0            0            0 
10322000    1025.0585    55052.382    468.64096   -400.21842    713.83107    313.61265    1136.6142   -400.21842            0   -9.5125684            0            0            0            0            0            0 
10323000    1064.3606    54670.836    477.92655   -395.25422    727.97482     332.7206    1181.3545   -395.25422            0   -9.5789563            0            0            0            0            0            0 
10324000    942.69103    53477.019    473.26949   -433.09736    720.88122    287.78386    1022.9956   -433.09736            0   -9.7927962            0            0            0            0            0            0 
10325000    776.88623    55996.581    490.05455   -418.49152    746.44812     327.9566    962.40283   -418.49152            0     -9.35217            0            0            0            0            0            0 
10326000    903.94916    54557.522    447.42983   -410.50693    681.52241    271.01548    990.25664   -410.50693            0   -9.5988514            0            0            0            0            0            0 
10327000    831.45029    55736.445    458.78816   -416.22076    698.82334    282.60258    958.45433   -416.22076            0    -9.395819            0            0            0            0            0            0 
10328000     993.7111    51770.826    465.88965   -442.73017    709.64029    266.91012    1017.1862   -442.73017            0   -10.115534            0            0            0            0            0            0 
10329000    854.90215    55014.404     451.1164   -420.00079    687.13776    267.13697    953.04945   -420.00079            0   -9.5191352            0            0            0            0            0            0 
10330000    887.22416    55657.563    450.75311   -404.80217     686.5844    281.78223    1001.9496   -404.80217            0   -9.4091354            0            0            0            0            0            0 
10331000    904.87777    54354.396    452.46959   -412.95618    689.19893    276.24275    993.54218   -412.95618            0   -9.6347229            0            0            0            0            0            0 
10332000     840.4927    55256.544    486.83672     -420.646    741.54674    320.90073    998.22019     -420.646            0   -9.4774213            0            0            0            0            0            0 
10333000    877.25189    56266.325    493.22927   -398.43227    751.28383    352.85156    1072.7127   -398.43227            0   -9.3073352            0            0            0            0            0            0 
10334000    898.68999    54929.904    472.77338   -416.32697    720.12555    303.79858    1023.7358   -416.32697            0   -9.5337786            0            0            0            0            0            0 
10335000    944.57679    54283.087    451.62487   -423.51943    687.91227    264.39284    1012.1795   -423.51943            0   -9.6473797            0            0            0            0            0            0 
10336000    785.08176    57045.104    448.04317   -403.03949    682.45664    279.41715    932.56146   -403.03949            0   -9.1802715            0            0            0            0            0            0 
10337000     906.1716    53059.565    461.92759   -434.74205    703.60531    268.86325    970.07636   -434.74205            0   -9.8698424            0            0            0            0            0            0 
10338000    852.83709    54758.962    432.32309   -418.32762    658.51191    240.18429     921.2628   -418.32762            0   -9.5635403            0            0            0            0            0            0 
10339000    770.49755    54845.058    487.28714   -440.87035    742.23282    301.36247    917.65181   -440.87035            0   -9.5485274            0            0            0            0            0            0 
10340000    828.02522     58855.58    444.04966   -388.79553    676.37375    287.57821    998.31222   -388.79553            0   -8.8978742            0            0            0            0            0            0 
10341000    1103.5971    53168.291    481.18347   -407.26251    732.93574    325.67323    1181.4079   -407.26251            0   -9.8496593            0            0            0            0            0            0 
10342000    1033.2844    54490.555    462.67275   -407.90841    704.74033    296.83192    1117.9715   -407.90841            0   -9.6106481            0            0            0            0            0            0 
10343000    810.57648    55815.064    450.66845   -421.41542    686.45545    265.04003    924.85371   -421.41542            0   -9.3825843            0            0            0            0            0            0 
10344000    941.73528    54714.272    484.99128   -416.58715    738.73578    322.14863    1073.6077   -416.58715            0   -9.5713518            0            0            0            0            0            0 
10345000    786.89488    55202.329    481.54697   -438.72611    733.48942    294.76331    928.26826   -438.72611            0   -9.4867291            0            0            0            0            0            0 
10346000    877.08323    54439.685    448.59297   -423.16606    683.29409    260.12804    956.48561   -423.16606            0   -9.6196284            0            0            0            0            0            0 
10347000    919.67418    55501.802    462.37978   -402.71123    704.29407    301.58285     1046.001   -402.71123            0   -9.4355413            0            0            0            0            0            0 
10348000     878.5952    54932.671    468.10705   -417.17429    713.01782    295.84353    999.71835   -417.17429            0   -9.5332984            0            0            0            0            0            0 
10349000    931.59339    52389.677    432.16692   -437.79466    658.27403    220.47936    932.26302   -437.79466            0   -9.9960445            0            0            0            0            0            0 
10350000    853.93918    56586.436    474.65389   -401.36292    722.98992      321.627    1026.3447   -401.36292            0   -9.2546833            0            0            0            0            0            0 
10351000    921.28599    55000.926    470.44075   -403.75327    716.57249    312.81922    1051.8123   -403.75327            0   -9.5214677            0            0            0            0            0            0 
10352000    978.81938    54718.002    473.41316   -406.31996    721.10005    314.78009    1095.8838   -406.31996            0   -9.5706994            0            0            0            0            0            0 
10353000     978.7161    53650.542    482.23648   -417.42915    734.53968    317.11053    1082.8953   -417.42915            0    -9.761123            0            0            0            0            0            0 
[...]
14939000    913.19517    56093.044    436.68148   -396.74527    665.15059    268.40532    1015.4533   -396.74527            0   -9.3360871            0            0            0            0            0            0 
14940000    722.14606    55188.496    413.08427   -422.83445    629.20746    206.37301    787.60498   -422.83445            0    -9.489107            0            0            0            0            0            0 
14941000    976.67967    56074.971    449.71759   -390.51542     685.0071    294.49168    1093.2163   -390.51542            0   -9.3390962            0            0            0            0            0            0 
14942000    952.16134     54753.61    451.86651   -403.90759    688.28032    284.37273    1044.6976   -403.90759            0   -9.5644752            0            0            0            0            0            0 
14943000    951.20596    55282.959    452.41014    -401.3367    689.10838    287.77168     1054.677    -401.3367            0   -9.4728928            0            0            0            0            0            0 
14944000    933.54174    52910.949    482.62318   -434.64708    735.12871    300.48163    1020.8509   -434.64708            0   -9.8975648            0            0            0            0            0            0 
14945000    691.61966    57065.345    440.97606   -415.74459    671.69206    255.94747    831.54069   -415.74459            0   -9.1770152            0            0            0            0            0            0 
14946000    937.04114    55850.591    458.02571    -400.4887    697.66199    297.17329    1060.4154    -400.4887            0    -9.376616            0            0            0            0            0            0 
14947000    658.47344    55063.998    424.76611   -440.43615    647.00117    206.56502    735.35338   -440.43615            0   -9.5105616            0            0            0            0            0            0 
14948000    794.60662    54314.332    448.69562   -430.53978    683.45044    252.91066    882.33352   -430.53978            0   -9.6418298            0            0            0            0            0            0 
14949000    937.73495    55709.535    468.36331   -393.09924    713.40816    320.30892    1082.1871   -393.09924            0   -9.4003575            0            0            0            0            0            0 
14950000     887.2671    53782.732    471.04033   -433.06551    717.48577    284.42026    980.36239   -433.06551            0   -9.7371317            0            0            0            0            0            0 
14951000    851.78214    57395.024     453.6771   -390.98659     691.0382    300.05161    1013.0338   -390.98659            0   -9.1243022            0            0            0            0            0            0 
14952000    882.77451     54633.62    475.09922   -416.01779    723.66825    307.65046    1011.0234   -416.01779            0   -9.5854814            0            0            0            0            0            0 
14953000    988.97767    54807.346    461.35748   -404.68471    702.73691     298.0522    1088.5509   -404.68471            0   -9.5550977            0            0            0            0            0            0 
14954000    886.52958    55785.514    485.01553   -404.92498    738.77272    333.84774    1055.1056   -404.92498            0   -9.3875543            0            0            0            0            0            0 
14955000    868.29346    54607.051    453.72618   -416.18471    691.11296    274.92825    966.42658   -416.18471            0   -9.5901452            0            0            0            0            0            0 
14956000    812.74453    55375.223    459.44592   -420.01032    699.82524    279.81492    936.17995   -420.01032            0   -9.4571094            0            0            0            0            0            0 
14957000    853.56838    57502.553     484.4435   -402.28374    737.90139    335.61765    1051.4335   -402.28374            0   -9.1072398            0            0            0            0            0            0 
14958000    855.50925    53668.313    435.30446   -434.88021    663.05312     228.1729    897.77768   -434.88021            0   -9.7578909            0            0            0            0            0            0 
14959000    833.30928    57201.194    466.49363   -402.64422    710.56027    307.91605    1003.0799   -402.64422            0   -9.1552205            0            0            0            0            0            0 
14960000    951.68506    54368.774    445.95887   -412.37194    679.28185    266.90991    1021.5132   -412.37194            0    -9.632175            0            0            0            0            0            0 
14961000    715.35003    57998.192    444.82317   -405.68964    677.55196    271.86232    876.93695   -405.68964            0   -9.0294116            0            0            0            0            0            0 
14962000     891.7197    53227.575     448.3785   -435.14475    682.96742    247.82267    940.03756   -435.14475            0   -9.8386887            0            0            0            0            0            0 
14963000    940.58917    56919.054    472.58242   -389.12963    719.83468    330.70505    1111.4938   -389.12963            0   -9.2006018            0            0            0            0            0            0 
14964000    975.00871    56726.041    496.08863   -386.68913    755.63919    368.95006    1175.5661   -386.68913            0   -9.2319072            0            0            0            0            0            0 
14965000      835.666    54756.757    439.82838   -414.65469    669.94393    255.28924    922.62799   -414.65469            0   -9.5639255            0            0            0            0            0            0 
14966000    877.97946    53653.896    471.58808   -432.70674     718.3201    285.61336    972.62091   -432.70674            0   -9.7605129            0            0            0            0            0            0 
14967000    862.85746    56947.503    434.74486   -391.76594    662.20073    270.43478    987.05595   -391.76594            0   -9.1960055            0            0            0            0            0            0 
14968000    869.99056    54432.113    442.74577   -415.59978    674.38768     258.7879    949.41819   -415.59978            0   -9.6209667            0            0            0            0            0            0 
14969000    1156.7039    52475.385    490.10301   -412.53975    746.52193    333.98218    1219.2073   -412.53975            0    -9.979718            0            0            0            0            0            0 
14970000    833.22451    56324.745    454.28033   -405.45522    691.95705    286.50183    970.94462   -405.45522            0   -9.2976816            0            0            0            0            0            0 
14971000     804.0055    55969.314    457.96495    -410.3694    697.56944    287.20004    943.47358    -410.3694            0   -9.3567261            0            0            0            0            0            0 
14972000    997.14997    54265.636     468.3555   -397.29999    713.39626    316.09627    1105.2494   -397.29999            0   -9.6504819            0            0            0            0            0            0 
14973000    882.80582     53363.06    449.81509   -430.55462    685.15562      254.601    941.64065   -430.55462            0    -9.813709            0            0            0            0            0            0 
14974000    789.27129    56269.911    443.11819   -409.10772    674.95493    265.84721    913.55396   -409.10772            0   -9.3067421            0            0            0            0            0            0 
14975000      740.213    56667.268    467.65444   -413.31084     712.3284    299.01756    910.75473   -413.31084            0   -9.2414822            0            0            0            0            0            0 
14976000    906.12884    53603.647    464.91342   -423.23929    708.15331    284.91402    993.28405   -423.23929            0   -9.7696626            0            0            0            0            0            0 
14977000    862.64141    56576.051    439.11825   -396.10756    668.86226     272.7547    984.52329   -396.10756            0   -9.2563821            0            0            0            0            0            0 
14978000     992.4699    55425.059    449.65558   -401.38508    684.91265    283.52757    1085.7585   -401.38508            0    -9.448606            0            0            0            0            0            0 
14979000    1023.7271    53456.485    506.36247   -417.20942    771.28824    354.07883    1152.1846   -417.20942            0   -9.7965578            0            0            0            0            0            0 
14980000    841.19481     55946.42    469.94666   -412.39474     715.8199    303.42516     989.7738   -412.39474            0    -9.360555            0            0            0            0            0            0 
14981000    932.32817    53781.756    463.90991   -423.55752    706.62476    283.06724    1014.3405   -423.55752            0   -9.7373084            0            0            0            0            0            0 
14982000    807.64189    56455.504    474.86056   -411.15377    723.30473    312.15096    977.11937   -411.15377            0   -9.2761468            0            0            0            0            0            0 
14983000    877.20146     55866.42    453.23052   -400.65583    690.35797    289.70214    1004.4059   -400.65583            0   -9.3739592            0            0            0            0            0            0 
14984000    964.71623    55799.263    458.21255   -394.17544    697.94658    303.77114    1088.8331   -394.17544            0   -9.3852413            0            0            0            0            0            0 
14985000    955.75699    51506.534    456.10919   -447.54279    694.74276    247.19997    965.13592   -447.54279            0   -10.167439            0            0            0            0            0            0 
14986000    855.48536    57175.677    489.30447   -398.59625     745.3056    346.70935    1060.0546   -398.59625            0   -9.1593063            0            0            0            0            0            0 
14987000    878.98222    55381.064    464.57865   -415.19049    707.64338    292.45288    1002.3857   -415.19049            0    -9.456112            0            0            0            0            0            0 
14988000    962.15613    55236.386    477.14785   -397.94415    726.78871    328.84456    1103.9249   -397.94415            0     -9.48088            0            0            0            0            0            0 
14989000    909.75559     54944.28    490.24613   -415.66183    746.73993     331.0781    1060.0707   -415.66183            0   -9.5312841            0            0            0            0            0            0 
14990000    849.88419    54665.334    475.37637   -429.37769    724.09041    294.71271    972.27254   -429.37769            0   -9.5799203            0            0            0            0            0            0 
14991000    954.92904    54596.316    454.36557   -406.18098    692.08689    285.90591    1046.2503   -406.18098            0   -9.5920308            0            0            0            0            0            0 
14992000    728.60473    55721.791     463.4274    -418.6319    705.88981    287.25791    879.35503    -418.6319            0   -9.3982899            0            0            0            0            0            0 
14993000    904.56196    53685.203    453.68697   -421.36171    691.05324    269.69154    977.91256   -421.36171            0    -9.754821            0            0            0            0            0            0 
14994000    777.46907    57913.623    459.33303   -399.21418    699.65328     300.4391    957.09786   -399.21418            0   -9.0425969            0            0            0            0            0            0 
14995000    873.18878    54493.932    456.03059   -418.08998    694.62302    276.53304    970.48944   -418.08998            0   -9.6100524            0            0            0            0            0            0 
14996000    950.35967    54508.887    435.27283   -408.79972    663.00494    254.20522    1009.6995   -408.79972            0   -9.6074159            0            0            0            0            0            0 
14997000     897.9722    55341.902    438.95412   -408.84575    668.61225    259.76651    984.52424   -408.84575            0   -9.4628036            0            0            0            0            0            0 
14998000    961.16172    52004.052    469.47124   -441.25747    715.09575    273.83828    1002.8081   -441.25747            0   -10.070168            0            0            0            0            0            0 
14999000    781.16165     57174.43    439.86359   -400.10741    669.99755    269.89014    921.24648   -400.10741            0   -9.1595062            0            0            0            0            0            0 
15000000    1042.8754    55573.449    435.20632   -379.12047    662.90363    283.78316    1129.0147   -379.12047            0   -9.4233767            0            0            0            0            0            0 
Loop time of 1492.73 on 8 procs for 5000000 steps with 512 atoms

Pair  time (%) = 847.421 (56.7699)
Bond  time (%) = 0.465026 (0.0311527)
Neigh time (%) = 37.5964 (2.51864)
Comm  time (%) = 446.287 (29.8974)
Outpt time (%) = 0.27704 (0.0185593)
Other time (%) = 160.683 (10.7644)

Nlocal:    64 ave 70 max 58 min
Histogram: 1 1 0 0 2 1 1 1 0 1
Nghost:    1304 ave 1323 max 1283 min
Histogram: 1 0 2 0 1 1 0 1 0 2
Neighs:    5963.25 ave 6417 max 5243 min
Histogram: 1 0 1 0 0 1 0 4 0 1

Total # of neighbors = 47706
Ave neighs/atom = 93.1758
Ave special neighs/atom = 0
Neighbor list builds = 98875
Dangerous builds = 0

Averages
Group Pressure(MPa) Volume(m3) Temperature(K) PE(J) KE(J) ET(J) ET^2(J) H(J) H^2(J^2) V^2(m6) V*H(m3*J) Hconf(J) Uext*Hconf(J^2) V*Hconf(m3*J) Uext(J)
Block1 89.566590555471478297 5.5114758295619822355e-26 459.95481138754399808 -2.870031577328155111e-18 4.8675576443132542651e-18 1.9975260669850999245e-18 4.0304333535343137539e-36 6.9279781609008006895e-18 4.8320933720502101221e-35 3.039444638976699007e-51 3.8175760895431483335e-43 2.0604205165875448837e-18 -5.8849637384917549235e-36 1.1347949815911360022e-43 -2.870031577328155111e-18
Block2 90.056731719220479704 5.5065427209962268366e-26 459.60473855697182444 -2.8680919719966780012e-18 4.8638529332409216172e-18 1.9957609612442401493e-18 4.02498635208336429e-36 6.9479842623643137728e-18 4.8621627106428346975e-35 3.0341896797337299528e-51 3.8250048912130622313e-43 2.084131329123384837e-18 -5.9477356709363698155e-36 1.1466745307410638959e-43 -2.8680919719966780012e-18
Block3 89.761770496562419908 5.5108757742194804025e-26 460.48899998059931704 -2.866901792563281002e-18 4.8732107948081592964e-18 2.0063090022448752128e-18 4.0650097520198828863e-36 6.9463256713246022795e-18 4.8572329903159919821e-35 3.0389001179039329704e-51 3.8271221816924702864e-43 2.0731148765164526128e-18 -5.9162615402142691529e-36 1.1414459692415033482e-43 -2.866901792563281002e-18
Block4 89.792332508386337508 5.5073014302087743541e-26 460.03679114642841341 -2.869743513463245418e-18 4.8684252104135559982e-18 1.998681696950316358e-18 4.0360357101085215287e-36 6.9375377250971610666e-18 4.8448411537263748025e-35 3.0348510622597533442e-51 3.8196450361221398525e-43 2.069112514683593898e-18 -5.910417046090841235e-36 1.1385528604442886666e-43 -2.869743513463245418e-18
Block5 90.096985652867331851 5.5092474371213239229e-26 459.50330869663469002 -2.8654548078866120949e-18 4.862779532811524613e-18 1.9973247249249129033e-18 4.0312790483459019235e-36 6.9544064128578773395e-18 4.8705279552547284618e-35 3.0370994270643102221e-51 3.8303200173309623649e-43 2.0916268800463511857e-18 -5.9645032018939078751e-36 1.1513675670288645656e-43 -2.8654548078866120949e-18
Ave_blocks 89.854882186501612296 5.5090886384215568615e-26 459.91772995363561449 -2.8680447326475940173e-18 4.8671652231174833121e-18 1.9991204904698889096e-18 4.0375488432183966092e-36 6.9428464465089514918e-18 4.8533716363980277994e-35 3.0368969851876846245e-51 3.823933643180356773e-43 2.0756812233914654834e-18 -5.9247762395254284668e-36 1.1425671818093710965e-43 -2.8680447326475940173e-18
Stdev_blocks 0.19751032167600451883 1.9283963109604428561e-29 0.34974523205237029178 1.7233491755461363704e-21 3.701244199844450822e-21 3.7126981577093870075e-21 1.417143456899803356e-38 9.1802333197288258666e-21 1.3506042984066414353e-37 2.1004459845015355288e-54 4.7097932806461885848e-46 1.1029882098763356594e-20 2.8174771724888582107e-38 5.8667893286701980125e-46 1.7233491755461363704e-21






Properties
Group rho(kg/m3) Cp(J/K) Cp_conf(J/K) Cp_id(J/K) Cp2(J/K) kT(1/Pa) aP(1/K) aP2(1/K) Cv(J/K) uJT(K/Pa) sos(m/s) Cv2(J/K) uJT2(K/Pa) sos2(m/s) CvNVT(J/K)
Block1 247.4697264754986179 1.109434294139529895e-19 2.3561252530479241752e-22 3.7491861387750692756e-20 3.7727473913055485174e-20 5.165897951042171766e-09 -0.00047354445994305039347 -0.00049744590354939015233 1.0984300866440917758e-19 -6.0498627045742912029e-07 888.85441248129234282 3.6513165599740042152e-20 -1.7951151586019851592e-06 899.0216901502494693 1.3805079418148094329e-20
Block2 247.69142547781211761 1.190295225146496425e-19 1.6169018669760021566e-22 3.7474084898278691415e-20 3.763577508497629464e-20 5.6906033699115844156e-09 -0.00058054549549262839201 -0.0005985809084279048722 1.1753060507280338654e-19 -5.8605683243251100153e-07 847.65126619047043732 3.604227931151563421e-20 -1.8656321273476445003e-06 860.71557871017296293 1.4375271866359595394e-20
Block3 247.4966723798453927 1.0960588225935439108e-19 -9.266299877410003047e-22 3.7518993370879603365e-20 3.6592363383138605318e-20 5.4940631644781121938e-09 -0.00056502036239833102436 -0.00063337365057573066611 1.0813128157120607194e-19 -6.3360893509072429128e-07 863.3954384185899471 3.4739402643742347188e-20 -1.9452656117643863692e-06 880.14160458329820358 1.3571876093072814818e-20
Block4 247.65730245608168048 1.091685700976099232e-19 -6.6991948324802139307e-22 3.7496024738185150105e-20 3.6826105254937130216e-20 5.1863337596228300602e-09 -0.00066251203720954845999 -0.00060264541621784129422 1.0702440364006809441e-19 -6.5823123517636561881e-07 891.15162365418507306 3.5051937563434253302e-20 -1.910096240779257239e-06 904.41150917422203293 1.4136999494907460703e-20
Block5 247.56982357116618232 1.1715051114240007884e-19 -1.0637454049501487869e-22 3.7468934957460288979e-20 3.7362560416965275605e-20 5.4896131343346449033e-09 -0.00064416942039032280484 -0.0005986424457408484525 1.1523696301206490809e-19 -6.0947011501459380627e-07 864.88122269223379135 3.5709935887995275409e-20 -1.8801498457101262489e-06 877.41298321246392788 1.4398240327190048856e-20
Ave_blocks 247.57699007208080388 1.1317958308559342428e-19 -2.6112425989632880746e-22 3.7489979870510891342e-20 3.7228855610614556987e-20 5.4053022758778688332e-09 -0.00058515835508677629083 -0.00058613766490234306579 1.1155325239211033734e-19 -6.1847067763432478881e-07 871.18679268735434107 3.561134420128551286e-20 -1.8792517968406797763e-06 884.34067316608127385 1.4057493439935605829e-20
Stdev_blocks 0.086664076389149954927 4.095119216442562907e-21 4.6032127348287672861e-22 1.7761769301159394993e-23 4.4708183815064124402e-22 2.0082090146029497309e-10 6.6858622149308676898e-05 4.6219425745405902112e-05 4.1095926301055783237e-21 2.4994261341441302925e-08 16.523472313696995428 6.4527902350388824906e-22 5.0148737303429350431e-08 15.761604428877607376 3.2340371927987754643e-22






