LAMMPS (28 Oct 2012)
Scanning data file ...
Reading data file ...
  orthogonal box = (0 0 0) to (100 100 100)
  2 by 2 by 2 MPI processor grid
  512 atoms
Finding 1-2 1-3 1-4 neighbors ...
  0 = max # of 1-2 neighbors
  0 = max # of 1-3 neighbors
  0 = max # of 1-4 neighbors
  1 = max # of special neighbors
WARNING: Resetting reneighboring criteria during minimization (min.cpp:173)
Setting up minimization ...
Memory usage per processor = 4.05499 Mbytes
Step Temp E_pair E_mol TotEng Press 
       0       520.15    1409.7233            0    2202.0127    448.73381 
     701       520.15   -217.27527            0    575.01406    35.988915 
Loop time of 0.0540117 on 8 procs for 701 steps with 512 atoms

Minimization stats:
  Stopping criterion = energy tolerance
  Energy initial, next-to-last, final = 
         1409.72334813     -217.256630745     -217.275265106
  Force two-norm initial, final = 5034.49 0.337455
  Force max component initial, final = 2457.89 0.147661
  Final line search alpha, max atom move = 0.254892 0.0376377
  Iterations, force evaluations = 701 710

Pair  time (%) = 0.00901946 (16.6991)
Bond  time (%) = 6.71148e-05 (0.12426)
Neigh time (%) = 0.00314057 (5.8146)
Comm  time (%) = 0.0216839 (40.1467)
Outpt time (%) = 0 (0)
Other time (%) = 0.0201007 (37.2154)

Nlocal:    64 ave 74 max 52 min
Histogram: 1 0 0 1 1 2 0 2 0 1
Nghost:    235.125 ave 266 max 224 min
Histogram: 4 0 2 0 0 1 0 0 0 1
Neighs:    316.25 ave 371 max 226 min
Histogram: 1 0 0 1 1 1 0 1 0 3

Total # of neighbors = 2530
Ave neighs/atom = 4.94141
Ave special neighs/atom = 0
Neighbor list builds = 60
Dangerous builds = 0
Setting up run ...
Memory usage per processor = 3.36354 Mbytes
Step Temp E_pair E_mol TotEng Press Volume 
     701       520.15   -217.27527            0    575.01406    35.988915      1000000 
 5000701    505.81836   -384.58686            0    385.87261     785.1142    60028.963 
Loop time of 1393 on 8 procs for 5000000 steps with 512 atoms

Pair  time (%) = 771.333 (55.372)
Bond  time (%) = 0.48814 (0.0350423)
Neigh time (%) = 37.3024 (2.67784)
Comm  time (%) = 427.594 (30.6959)
Outpt time (%) = 3.96371e-05 (2.84545e-06)
Other time (%) = 156.283 (11.2192)

Nlocal:    64 ave 76 max 58 min
Histogram: 1 2 3 0 0 1 0 0 0 1
Nghost:    1232 ave 1296 max 1183 min
Histogram: 1 0 2 2 0 0 2 0 0 1
Neighs:    5509.12 ave 6726 max 4771 min
Histogram: 1 1 1 3 0 0 0 1 0 1

Total # of neighbors = 44073
Ave neighs/atom = 86.0801
Ave special neighs/atom = 0
Neighbor list builds = 105072
Dangerous builds = 14
Setting up run ...
Memory usage per processor = 3.96721 Mbytes
Step Press Volume Temp PotEng KinEng TotEng Enthalpy E_vdwl E_coul E_tail E_long E_bond E_angle E_dihed E_impro E_mol 
10000000     785.1142    60028.963    505.81836   -384.58686    770.45946    385.87261    1073.2093   -384.58686            0   -8.7239479            0            0            0            0            0            0 
10001000    930.51406    60496.217    503.40085   -353.58618    766.77712    413.19094    1234.1605   -353.58618            0   -8.6565669            0            0            0            0            0            0 
10002000    1021.7623    57051.846    525.37174   -382.48997    800.24305    417.75307    1267.9029   -382.48997            0   -9.1791867            0            0            0            0            0            0 
10003000    813.11435    63677.934    540.75092   -352.64984    823.66853    471.01869    1226.1396   -352.64984            0   -8.2240348            0            0            0            0            0            0 
10004000    925.45222    59122.753    502.45541   -373.73693    765.33703    391.60009    1189.5664   -373.73693            0   -8.8576651            0            0            0            0            0            0 
10005000    768.96534    59787.746    501.86235   -380.67103    764.43369    383.76266    1054.2566   -380.67103            0   -8.7591452            0            0            0            0            0            0 
10006000    871.93386    63246.102     493.1055   -341.07934    751.09531    410.01596    1214.2699   -341.07934            0   -8.2801869            0            0            0            0            0            0 
10007000    888.44996    60492.231    514.94488   -358.21877    784.36092    426.14215    1209.9479   -358.21877            0   -8.6571372            0            0            0            0            0            0 
10008000    868.99793     62087.27    532.37212   -353.81591    810.90599    457.09008    1243.9496   -353.81591            0   -8.4347329            0            0            0            0            0            0 
10009000    870.49056     58226.66    508.63769   -389.01682    774.75385    385.73703    1124.9368   -389.01682            0   -8.9939822            0            0            0            0            0            0 
10010000    988.20225    58703.852    522.94246    -367.1716    796.54279    429.37119    1275.4062    -367.1716            0   -8.9208719            0            0            0            0            0            0 
10011000    957.13436    60846.774    520.06277   -348.85458    792.15646    443.30188    1292.6512   -348.85458            0   -8.6066936            0            0            0            0            0            0 
10012000    859.63303    61362.764    521.77689   -364.00919     794.7674    430.75821    1200.0549   -364.00919            0   -8.5343214            0            0            0            0            0            0 
10013000    953.06549    61329.575     549.8538   -350.29598    837.53397    487.23799    1339.6873   -350.29598            0   -8.5389398            0            0            0            0            0            0 
10014000    811.65661    60834.226    480.50945   -369.89063    731.90909    362.01846    1082.1241   -369.89063            0   -8.6084689            0            0            0            0            0            0 
10015000    851.67041    61834.488    521.04473   -360.65855    793.65217    432.99362    1201.0237   -360.65855            0   -8.4692146            0            0            0            0            0            0 
10016000    1004.4896    60541.198    548.93893   -358.75189    836.14045    477.38856    1364.2838   -358.75189            0   -8.6501351            0            0            0            0            0            0 
10017000    762.10773     61689.63    522.77302   -371.65216    796.28469    424.63253    1110.2856   -371.65216            0   -8.4891017            0            0            0            0            0            0 
10018000    771.45836    60974.469    475.90399   -374.82626    724.89407     350.0678    1036.0872   -374.82626            0   -8.5886692            0            0            0            0            0            0 
10019000    758.93242    60646.581    529.76759   -381.88967    806.93877     425.0491    1096.3007   -381.88967            0   -8.6351042            0            0            0            0            0            0 
10020000    956.51204    59847.329    518.89945   -359.76294    790.38449    430.62155    1265.4767   -359.76294            0   -8.7504247            0            0            0            0            0            0 
10021000    820.14839    61008.129    536.13564   -375.28902    816.63856    441.34954    1171.0692   -375.28902            0   -8.5839306            0            0            0            0            0            0 
10022000    847.37559    60703.346    530.97116   -377.73387    808.77204    431.03817    1181.2164   -377.73387            0   -8.6270294            0            0            0            0            0            0 
10023000     689.9044    59162.425    488.28995   -401.29758     743.7603    342.46272     937.7283   -401.29758            0   -8.8517255            0            0            0            0            0            0 
10024000     864.5159     61577.44    544.31674   -357.14722    829.09996    471.95274    1248.3259   -357.14722            0   -8.5045683            0            0            0            0            0            0 
10025000    1037.8203    60312.149    529.67816   -349.09867    806.80257     457.7039    1370.5611   -349.09867            0    -8.682986            0            0            0            0            0            0 
10026000    897.45242    60403.455     514.6421   -358.59498    783.89972    425.30474    1215.8907   -358.59498            0   -8.6698607            0            0            0            0            0            0 
10027000    793.43688    60873.502    504.96465      -373.81    769.15909    395.34909    1099.7446      -373.81            0   -8.6029147            0            0            0            0            0            0 
10028000    804.89298    60445.957    525.99721   -379.31044    801.19576    421.88531    1131.4325   -379.31044            0   -8.6637646            0            0            0            0            0            0 
10029000    932.84248    59721.985    514.91882    -371.9122    784.32122    412.40901    1224.8998    -371.9122            0     -8.76879            0            0            0            0            0            0 
10030000    983.55505    59305.425    505.53815   -368.58512    770.03264    401.44752    1252.1329   -368.58512            0   -8.8303818            0            0            0            0            0            0 
10031000    941.85623    60128.703    510.46784   -360.86715    777.54152    416.67437    1242.6027   -360.86715            0   -8.7094768            0            0            0            0            0            0 
10032000    792.70213    60091.378    541.53489    -383.5425    824.86267    441.32016    1136.0214    -383.5425            0   -8.7148865            0            0            0            0            0            0 
10033000    991.26121    61242.903    532.60291    -346.5334    811.25753    464.72412    1350.0839    -346.5334            0   -8.5510242            0            0            0            0            0            0 
10034000    881.62465    60276.499    502.36487   -359.52888    765.19912    405.67024    1180.6808   -359.52888            0   -8.6881215            0            0            0            0            0            0 
10035000    956.52384    57623.353    506.68851   -376.94839    771.78487    394.83648    1198.6776   -376.94839            0   -9.0881478            0            0            0            0            0            0 
10036000    994.91771    61011.416    539.83893   -346.72885    822.27939    475.55054    1360.8173   -346.72885            0   -8.5834681            0            0            0            0            0            0 
10037000    890.29606    60904.918    508.72567   -361.39136    774.88786     413.4965    1204.2893   -361.39136            0   -8.5984771            0            0            0            0            0            0 
10038000    862.51373    59931.957    513.41602   -377.77112    782.03216    404.26104    1158.1378   -377.77112            0   -8.7380685            0            0            0            0            0            0 
10039000    888.63816    61331.364    507.66436   -348.71642    773.27127    424.55485    1219.4017   -348.71642            0   -8.5386907            0            0            0            0            0            0 
10040000    816.00157    59159.009    499.99686   -379.19697    761.59219    382.39522    1086.4197   -379.19697            0   -8.8522367            0            0            0            0            0            0 
10041000    796.63485    59973.635    540.85848   -385.84609    823.83235    437.98626    1134.7661   -385.84609            0   -8.7319961            0            0            0            0            0            0 
10042000    896.70982    62594.766    525.93515   -348.22753    801.10123     452.8737    1271.4626   -348.22753            0   -8.3663472            0            0            0            0            0            0 
10043000    818.28163    60363.042    503.63789   -374.76547    767.13818    392.37271    1112.7331   -374.76547            0   -8.6756652            0            0            0            0            0            0 
10044000    845.73348     60360.36    500.16397   -368.50251    761.84673    393.34422    1137.8383   -368.50251            0   -8.6760507            0            0            0            0            0            0 
10045000    829.47905    61402.186    481.92778   -362.40206    734.06947    371.66741    1114.4559   -362.40206            0   -8.5288421            0            0            0            0            0            0 
10046000     914.5275    60572.547    519.79167   -358.59076    791.74353    433.15276    1241.0358   -358.59076            0   -8.6456583            0            0            0            0            0            0 
10047000    855.10556    62537.535    496.49263   -340.78351    756.25457    415.47106    1195.3665   -340.78351            0   -8.3740036            0            0            0            0            0            0 
10048000    980.49413    58452.498    530.11868   -373.79079    807.47355    433.68276    1269.5243   -373.79079            0   -8.9592329            0            0            0            0            0            0 
10049000    894.43412    58399.928    533.13145    -380.5644    812.06258    431.49818    1193.2905    -380.5644            0   -8.9672977            0            0            0            0            0            0 
10050000    768.90169    61962.672    513.56686   -363.86573    782.26193    418.39619    1113.2234   -363.86573            0    -8.451694            0            0            0            0            0            0 
10051000    851.40685    60554.796    505.14647   -374.43979    769.43603    394.99624    1146.8988   -374.43979            0   -8.6481927            0            0            0            0            0            0 
10052000    948.12093    59368.081    485.03803   -362.14526    738.80698    376.66172    1197.5662   -362.14526            0   -8.8210623            0            0            0            0            0            0 
10053000    815.84814    61983.217    493.51211   -359.00839    751.71465    392.70626    1130.2017   -359.00839            0   -8.4488926            0            0            0            0            0            0 
10054000    790.94577    59856.099    501.53495   -381.44075    763.93499    382.49424    1072.9423   -381.44075            0   -8.7491426            0            0            0            0            0            0 
10055000    843.56127    63461.134     484.0555     -346.824     737.3104     390.4864    1171.2155     -346.824            0   -8.2521303            0            0            0            0            0            0 
10056000     897.6942    60706.045    521.85154   -369.44268     794.8811    425.43842    1220.1989   -369.44268            0   -8.6266457            0            0            0            0            0            0 
10057000    842.27792    60138.251    525.99969   -379.81856    801.19953    421.38098    1160.1048   -379.81856            0    -8.708094            0            0            0            0            0            0 
10058000    857.31004    61886.962    516.92154   -362.08106    787.37176     425.2907    1199.0626   -362.08106            0   -8.4620336            0            0            0            0            0            0 
10059000    967.75857    60014.389    528.66771   -358.65278    805.26345    446.61066    1293.6397   -358.65278            0   -8.7260665            0            0            0            0            0            0 
10060000     738.9314    64839.104    512.35916   -348.56185    780.42236    431.86051    1130.6028   -348.56185            0   -8.0767549            0            0            0            0            0            0 
10061000    1020.9634    58842.799    519.78261   -359.06483    791.72971    432.66488    1308.8167   -359.06483            0   -8.8998069            0            0            0            0            0            0 
10062000    935.10134    58927.677    499.99514   -362.79173    761.58957    398.79784    1202.4237   -362.79173            0   -8.8869877            0            0            0            0            0            0 
10063000    797.99486    61155.564    503.81981   -361.68529    767.41527    405.72998    1117.4546   -361.68529            0   -8.5632362            0            0            0            0            0            0 
10064000     985.9709    60781.426    515.44609   -344.04069    785.12436    441.08366    1315.0825   -344.04069            0    -8.615947            0            0            0            0            0            0 
10065000      839.112    61281.538    496.65425   -362.05723    756.50074    394.44351    1144.3817   -362.05723            0   -8.5456332            0            0            0            0            0            0 
10066000    970.48949    58806.224    514.23806   -361.54405     783.2843    421.74025    1254.0596   -361.54405            0   -8.9053422            0            0            0            0            0            0 
10067000    980.03824    59787.866    558.14685   -362.55183     850.1659    487.61407    1342.1532   -362.55183            0   -8.7591275            0            0            0            0            0            0 
10068000    945.92861    60352.301    511.62352   -353.45618    779.30184    425.84566    1258.4297   -353.45618            0   -8.6772092            0            0            0            0            0            0 
10069000    976.28722     59521.67    504.42594   -354.26356    768.33853    414.07497    1261.5533   -354.26356            0   -8.7983006            0            0            0            0            0            0 
10070000    950.55069    60691.314    540.11678   -360.32391     822.7026    462.37868    1303.7306   -360.32391            0   -8.6287396            0            0            0            0            0            0 
10071000    982.09181    59279.091    541.10074   -365.90863    824.20137    458.29274    1307.3354   -365.90863            0   -8.8343046            0            0            0            0            0            0 
10072000    835.44831    61344.589     524.8903   -366.86217    799.50972    432.64755    1180.0796   -366.86217            0   -8.5368499            0            0            0            0            0            0 
10073000     887.0044    60080.119    512.94199   -369.28651    781.31012    412.02361     1189.223   -369.28651            0   -8.7165198            0            0            0            0            0            0 
10074000    866.70505    60413.582     489.1502   -353.99528    745.07062    391.07534    1154.7033   -353.99528            0   -8.6684074            0            0            0            0            0            0 
10075000    831.50541     59067.53    517.86924   -393.21883    788.81529    395.59646    1111.8879   -393.21883            0   -8.8659462            0            0            0            0            0            0 
10076000    782.18117    63155.902    500.53375   -355.55573    762.40997    406.85425    1127.2932   -355.55573            0   -8.2920128            0            0            0            0            0            0 
10077000    820.85522    62641.293    513.85777   -353.17051    782.70504    429.53453    1179.4342   -353.17051            0    -8.360133            0            0            0            0            0            0 
10078000    958.27266    60283.067    562.68719   -360.74787    857.08171    496.33384    1338.8152   -360.74787            0   -8.6871749            0            0            0            0            0            0 
10079000    774.83015    62642.914    530.82107   -361.43438    808.54344    447.10906    1154.9804   -361.43438            0   -8.3599168            0            0            0            0            0            0 
10080000      899.243    59513.731    521.46287   -364.42164    794.28908    429.86744    1210.3625   -364.42164            0   -8.7994743            0            0            0            0            0            0 
10081000    865.26818    61466.409    499.09503   -353.78173    760.21852     406.4368    1182.0844   -353.78173            0   -8.5199307            0            0            0            0            0            0 
10082000    763.31782    61907.761    502.20895   -366.59196    764.96162    398.36967    1087.5397   -366.59196            0   -8.4591905            0            0            0            0            0            0 
10083000    957.38256    58755.252     503.3287   -369.26095    766.66723    397.40628    1217.7731   -369.26095            0   -8.9130678            0            0            0            0            0            0 
10084000    740.74757    62370.502    476.73948   -378.56922    726.16669    347.59747    1021.3887   -378.56922            0   -8.3964299            0            0            0            0            0            0 
10085000    908.94096    59167.604    527.11235   -370.12872    802.89433    432.76561    1217.0897   -370.12872            0   -8.8509507            0            0            0            0            0            0 
10086000    1005.3057     59219.21    517.42813   -359.35834    788.14339    428.78505    1297.0188   -359.35834            0   -8.8432377            0            0            0            0            0            0 
10087000    879.89475    62474.218    502.11472   -343.04935     764.8181    421.76874    1223.4606   -343.04935            0   -8.3824906            0            0            0            0            0            0 
10088000    907.23861    59391.745    485.54636   -367.55808    739.58127    372.02319     1157.844   -367.55808            0   -8.8175478            0            0            0            0            0            0 
10089000    906.85675    63086.224    528.13193    -340.0968    804.44735    464.35055    1298.7022    -340.0968            0   -8.3011712            0            0            0            0            0            0 
10090000    957.47554    60470.796    501.60375   -352.63865     764.0398    411.40115    1255.8032   -352.63865            0   -8.6602058            0            0            0            0            0            0 
10091000    911.51378    59850.791    521.73906   -373.16245    794.70978    421.54732    1217.1734   -373.16245            0   -8.7499185            0            0            0            0            0            0 
10092000    831.65495    62865.893    519.71206   -354.78538    791.62226    436.83687    1199.3269   -354.78538            0    -8.330265            0            0            0            0            0            0 
10093000    835.82541    60026.622     542.6318   -379.62904    826.53346    446.90442    1178.6083   -379.62904            0   -8.7242881            0            0            0            0            0            0 
10094000    837.62628    61142.888    481.63212   -356.14571    733.61913    377.47341    1124.3901   -356.14571            0   -8.5650116            0            0            0            0            0            0 
10095000    824.91125      60343.1    519.82524   -373.98111    791.79465    417.81354    1143.7703   -373.98111            0   -8.6785324            0            0            0            0            0            0 
10096000    838.99568     60348.15    539.73572   -377.14381    822.12217    444.97836    1183.3918   -377.14381            0   -8.6778061            0            0            0            0            0            0 
10097000    1014.7055    57043.515    533.46663   -382.46154    812.57314     430.1116    1274.2665   -382.46154            0   -9.1805273            0            0            0            0            0            0 
10098000    812.39435      62100.2    526.38579   -370.31825    801.78765     431.4694    1167.2287   -370.31825            0   -8.4329768            0            0            0            0            0            0 
10099000    969.68061    60986.017    529.16354    -347.8771    806.01869    458.14159    1320.5935    -347.8771            0   -8.5870429            0            0            0            0            0            0 
10100000    697.42073    58779.886    486.58484   -400.24508    741.16307    340.91799    938.77797   -400.24508            0   -8.9093324            0            0            0            0            0            0 
10101000    898.81934    62426.654    541.52613   -348.97158    824.84932    475.87774    1294.1887   -348.97158            0   -8.3888774            0            0            0            0            0            0 
10102000    878.10665      61832.6    520.54876   -351.84329    792.89672    441.05343    1232.8993   -351.84329            0   -8.4694732            0            0            0            0            0            0 
10103000    934.01376    60770.446    514.39305   -354.69361    783.52037    428.82675    1256.6195   -354.69361            0   -8.6175037            0            0            0            0            0            0 
10104000    875.96078    59743.049    543.49141   -383.13012    827.84281    444.71269    1207.9295   -383.13012            0   -8.7656984            0            0            0            0            0            0 
10105000    832.30736    61094.352    522.42795   -365.40872    795.75909    430.35038     1171.935   -365.40872            0    -8.571816            0            0            0            0            0            0 
10106000    1064.3623    58991.347     512.0722   -351.91357    779.98527    428.07171    1343.7727   -351.91357            0    -8.877396            0            0            0            0            0            0 
10107000    816.08931    65214.161    544.66099   -332.20529    829.62432    497.41903    1273.5866   -332.20529            0   -8.0303041            0            0            0            0            0            0 
10108000    843.24714    58463.291    480.79771   -383.36047    732.34815    348.98769    1067.9631   -383.36047            0   -8.9575789            0            0            0            0            0            0 
10109000    809.63346    60478.895    496.57656   -373.02914    756.38241    383.35327    1097.4683   -373.02914            0   -8.6590463            0            0            0            0            0            0 
10110000    894.41806    60924.497    520.62196   -353.64003    793.00822    439.36818    1234.0777   -353.64003            0   -8.5957139            0            0            0            0            0            0 
10111000     949.3338    59587.625    526.94784   -363.30886    802.64375    439.33489    1264.3291   -363.30886            0   -8.7885622            0            0            0            0            0            0 
10112000    1127.9912    59172.334    524.81985    -341.0783    799.40241    458.32411    1431.7442    -341.0783            0   -8.8502432            0            0            0            0            0            0 
10113000     924.6611     63289.96    511.10379   -329.10386    778.51019    449.40633    1302.8862   -329.10386            0    -8.274449            0            0            0            0            0            0 
10114000    1050.6401    56563.946     559.4976   -389.85611    852.22335    462.36725    1329.0688   -389.85611            0    -9.258363            0            0            0            0            0            0 
10115000    866.43319     62390.72    540.11745   -349.13627    822.70363    473.56736     1261.939   -349.13627            0   -8.3937089            0            0            0            0            0            0 
10116000    890.12018    58063.456     524.0701   -381.47447     798.2604    416.78594    1170.5361   -381.47447            0   -9.0192624            0            0            0            0            0            0 
10117000    861.86221    61187.128    538.08745   -367.03125    819.61154     452.5803    1221.6643   -367.03125            0   -8.5588189            0            0            0            0            0            0 
10118000    951.59957    61506.486    521.33279   -349.98713    794.09094    444.10381    1297.6972   -349.98713            0   -8.5143792            0            0            0            0            0            0 
10119000    747.10938    60725.096    514.60569   -381.26636    783.84427     402.5779    1064.2279   -381.26636            0   -8.6239394            0            0            0            0            0            0 
10120000    841.75363    59027.674    499.63874   -387.13988    761.04669    373.90681    1098.5372   -387.13988            0   -8.8719326            0            0            0            0            0            0 
10121000    816.92394    62814.358    554.95208   -360.43527    845.29964    484.86436    1233.2345   -360.43527            0   -8.3370994            0            0            0            0            0            0 
10122000    933.08075     59682.94    533.60253    -368.0496    812.78014    444.73054    1256.8975    -368.0496            0   -8.7745266            0            0            0            0            0            0 
10123000    876.82004    61100.174    530.75343    -366.5913     808.4404     441.8491    1223.1689    -366.5913            0   -8.5709993            0            0            0            0            0            0 
10124000    895.91867    61038.915    542.43121   -361.40623    826.22794    464.82171    1262.3595   -361.40623            0   -8.5796012            0            0            0            0            0            0 
10125000    814.36179    58349.865    502.55374   -390.74592    765.48681    374.74088    1067.7407   -390.74592            0   -8.9749915            0            0            0            0            0            0 
10126000      796.322    60004.365    519.13972   -379.03301    790.75048    411.71747    1108.5805   -379.03301            0   -8.7275241            0            0            0            0            0            0 
10127000    883.14135     59639.96    539.17103   -374.89209    821.26205    446.36995    1214.5154   -374.89209            0   -8.7808501            0            0            0            0            0            0 
10128000    852.17806    61069.377    536.10188   -371.10536    816.58714    445.48178    1204.4607   -371.10536            0   -8.5753216            0            0            0            0            0            0 
10129000    956.46075    60090.498     557.0961   -371.85295     848.5654    476.71245    1314.9147   -371.85295            0   -8.7150143            0            0            0            0            0            0 
10130000     986.0883    61417.119    490.16173   -344.61931    746.61138    401.99207     1285.237   -344.61931            0   -8.5267683            0            0            0            0            0            0 
10131000    970.52775    59339.413    559.33511   -372.88464    851.97585    479.09121    1318.9903   -372.88464            0    -8.825324            0            0            0            0            0            0 
10132000    765.31034    61021.987     541.1362   -383.92822    824.25537    440.32715    1121.4098   -383.92822            0   -8.5819812            0            0            0            0            0            0 
10133000    797.90873    58810.831    489.53269   -404.25406    745.65323    341.39917     1025.762   -404.25406            0   -8.9046446            0            0            0            0            0            0 
10134000    700.19536    61843.956    494.65806   -368.88562    753.46016    384.57455    1016.1022   -368.88562            0   -8.4679179            0            0            0            0            0            0 
10135000    801.31798    57645.246    524.50629   -403.17993     798.9248    395.74486    1069.4103   -403.17993            0   -9.0846962            0            0            0            0            0            0 
10136000    723.47165    60106.759    511.59267   -393.24957    779.25485    386.00529    1020.1972   -393.24957            0   -8.7126565            0            0            0            0            0            0 
10137000    807.59837     60855.84    524.13062   -372.79485    798.35257    425.55773    1142.3174   -372.79485            0   -8.6054115            0            0            0            0            0            0 
10138000    952.76135    58854.676    524.34559   -370.14218    798.68003    428.53785    1246.3263   -370.14218            0   -8.8980109            0            0            0            0            0            0 
10139000    824.60662    63160.035     524.1136   -354.78445    798.32666    443.54221    1203.1074   -354.78445            0   -8.2914701            0            0            0            0            0            0 
10140000     1087.318      57206.5    495.13925   -363.36962     754.1931    390.82348    1297.9709   -363.36962            0   -9.1543714            0            0            0            0            0            0 
10141000    899.29366    61455.841    519.13799   -351.38884    790.74783    439.35899    1245.3693   -351.38884            0   -8.5213958            0            0            0            0            0            0 
10142000    1058.0899    58987.373    520.37092   -357.35809    792.62582    435.26774    1345.5111   -357.35809            0    -8.877994            0            0            0            0            0            0 
10143000    768.02053    61803.693    531.78001    -375.6253    810.00409    434.37878    1126.6291    -375.6253            0   -8.4734345            0            0            0            0            0            0 
10144000    844.84215    60403.399    510.23595   -367.56279    777.18831    409.62552    1153.8652   -367.56279            0   -8.6698689            0            0            0            0            0            0 
10145000    800.04837    61985.819    512.77125   -357.31426    781.05006     423.7358    1146.9792   -357.31426            0    -8.448538            0            0            0            0            0            0 
10146000    873.19743    61160.815    526.86773   -359.41993    802.52174    443.10181    1221.9658   -359.41993            0   -8.5625011            0            0            0            0            0            0 
10147000    1098.6324    58857.682    535.43589   -338.93964    815.57269    476.63306    1419.6759   -338.93964            0   -8.8975564            0            0            0            0            0            0 
10148000    951.39603    61885.067    520.02935   -350.58445    792.10555     441.5211    1300.1848   -350.58445            0   -8.4622927            0            0            0            0            0            0 
10149000    992.11237    58264.647    519.01924   -377.95623    790.56697    412.61074    1255.6385   -377.95623            0   -8.9881184            0            0            0            0            0            0 
10150000     831.8281    60346.444    530.98386   -381.44494     808.7914    427.34646    1159.4309   -381.44494            0   -8.6780514            0            0            0            0            0            0 
10151000    986.69906    59511.422    496.47893   -352.32648    756.23369    403.90721    1260.2762   -352.32648            0   -8.7998157            0            0            0            0            0            0 
10152000    921.10701    60314.933    508.94961   -357.38698    775.22897    417.84199    1228.0767   -357.38698            0   -8.6825852            0            0            0            0            0            0 
10153000    751.86462    60268.937    517.00593   -383.25641     787.5003    404.24388    1065.1033   -383.25641            0   -8.6892115            0            0            0            0            0            0 
10154000    795.88685    62933.815    497.74031   -362.57838    758.15502    395.57664    1126.0616   -362.57838            0   -8.3212745            0            0            0            0            0            0 
10155000    843.18036    59700.753    501.67849   -369.48098    764.15363    394.67265    1128.8081   -369.48098            0   -8.7719086            0            0            0            0            0            0 
10156000     776.8881    63438.135    548.62954   -353.81553    835.66919    481.85366    1200.6151   -353.81553            0    -8.255122            0            0            0            0            0            0 
10157000    821.79898    58050.502    516.37215   -392.14907    786.53492    394.38586    1090.1266   -392.14907            0    -9.021275            0            0            0            0            0            0 
10158000    890.27355    59776.694    507.62535   -366.58481    773.21186    406.62705    1182.7513   -366.58481            0   -8.7607647            0            0            0            0            0            0 
10159000    894.76782     59724.66    524.56661   -374.85328    799.01669     424.1634    1203.5267   -374.85328            0   -8.7683972            0            0            0            0            0            0 
10160000    885.33649    59162.223    535.67462   -385.11305    815.93633    430.82328    1194.7096   -385.11305            0   -8.8517558            0            0            0            0            0            0 
10161000    795.38039    61877.889    509.51649   -365.72016    776.09243    410.37227    1128.1439   -365.72016            0   -8.4632742            0            0            0            0            0            0 
10162000    833.23822    59807.008    468.63001   -371.97634    713.81439    341.83805    1068.6083   -371.97634            0   -8.7563242            0            0            0            0            0            0 
10163000    873.76095    60488.496    527.37975   -371.17307    803.30163    432.12856    1202.9279   -371.17307            0   -8.6576717            0            0            0            0            0            0 
10164000    932.82811    60015.346    541.40631   -358.22782     824.6668    466.43899    1282.9082   -358.22782            0   -8.7259273            0            0            0            0            0            0 
10165000    915.45181    60047.541    523.00066   -370.89348    796.63143    425.73795    1227.4282   -370.89348            0   -8.7212488            0            0            0            0            0            0 
10166000     1095.238    59339.475    530.80918   -354.87424    808.52532    453.65108    1401.4759   -354.87424            0   -8.8253148            0            0            0            0            0            0 
10167000    805.74948    62550.389    508.71006   -349.49169    774.86408    425.37238    1160.4039   -349.49169            0   -8.3722827            0            0            0            0            0            0 
10168000    847.02682    60784.411    503.54393    -369.7225    766.99505    397.27255    1148.1434    -369.7225            0   -8.6155238            0            0            0            0            0            0 
10169000    834.46751    62493.344    508.03624   -346.76777    773.83772    427.06995    1187.6047   -346.76777            0   -8.3799251            0            0            0            0            0            0 
10170000    1017.9376    57996.974    489.91614   -363.35645    746.23729    382.88085    1243.8793   -363.35645            0   -9.0296011            0            0            0            0            0            0 
10171000     828.7961    61918.724    526.20605   -357.74519    801.51386    443.76867     1192.189   -357.74519            0   -8.4576928            0            0            0            0            0            0 
10172000    870.78112    56802.881    526.45436   -398.25223    801.89209    403.63987    1125.0052   -398.25223            0   -9.2194188            0            0            0            0            0            0 
10173000    925.19646    59541.795     539.6464   -372.24554    821.98612    449.74057    1253.1405   -372.24554            0   -8.7953267            0            0            0            0            0            0 
10174000    874.38734    61326.302    529.50128   -353.90801    806.53313    452.62512    1234.6607   -353.90801            0   -8.5393955            0            0            0            0            0            0 
10175000    1009.2649    58439.013     500.6674   -358.48843    762.61355    404.12512    1264.2944   -358.48843            0   -8.9613003            0            0            0            0            0            0 
10176000    1099.6291    58294.212    534.99344   -359.39389    814.89877    455.50488    1390.3669   -359.39389            0   -8.9835599            0            0            0            0            0            0 
10177000    823.19537    62413.865    536.82267   -363.46685    817.68504    454.21819    1203.5254   -363.46685            0   -8.3905963            0            0            0            0            0            0 
10178000    831.31739    61694.411    503.00784   -362.01145    766.17849    404.16704    1152.1446   -362.01145            0   -8.4884439            0            0            0            0            0            0 
10179000    928.13685    59158.948    491.60244   -372.80151    748.80586    376.00435    1176.7754   -372.80151            0   -8.8522458            0            0            0            0            0            0 
10180000    785.93119    61650.415    541.08552     -376.851    824.17819    447.32719    1153.9643     -376.851            0   -8.4945015            0            0            0            0            0            0 
10181000     941.3403    58635.955    518.89415   -374.41801    790.37642    415.95841    1220.9411   -374.41801            0   -8.9312018            0            0            0            0            0            0 
10182000    811.19931    62809.568    495.51549   -355.84704    754.76619    398.91915    1141.9884   -355.84704            0   -8.3377351            0            0            0            0            0            0 
10183000     998.7641    59935.421    538.59307   -362.16489     820.3817    458.21682    1331.2332   -362.16489            0   -8.7375635            0            0            0            0            0            0 
10184000    764.60203    61284.486    523.51489   -367.88731    797.41471     429.5274    1112.9068   -367.88731            0   -8.5452221            0            0            0            0            0            0 
10185000    817.08615    63316.036    501.62519   -355.21931    764.07245    408.85314      1163.35   -355.21931            0   -8.2710413            0            0            0            0            0            0 
10186000    987.81317    60046.183    525.91207   -349.66563    801.06608    451.40045    1316.4403   -349.66563            0   -8.7214461            0            0            0            0            0            0 
10187000    1047.9451    60048.466     538.8713   -343.50916    820.80549    477.29634    1395.0293   -343.50916            0   -8.7211144            0            0            0            0            0            0 
10188000    829.96207    60159.999    506.67009   -381.32186     771.7568    390.43494    1118.6203   -381.32186            0   -8.7049461            0            0            0            0            0            0 
10189000    761.69002    59092.209    503.70249   -388.44701    767.23657    378.78956    1035.2135   -388.44701            0   -8.8622435            0            0            0            0            0            0 
10190000    833.00958    63041.505    545.40455   -354.62261     830.7569    476.13429    1241.9997   -354.62261            0   -8.3070597            0            0            0            0            0            0 
10191000    805.62348    60520.742    506.58101   -375.75048    771.62112    395.87064    1106.9405   -375.75048            0    -8.653059            0            0            0            0            0            0 
10192000    917.05299    60079.017    484.09028   -361.20306    737.36338    376.16032    1179.6738   -361.20306            0   -8.7166796            0            0            0            0            0            0 
10193000    896.67034    59908.898    540.52433   -363.17363    823.32338    460.14975    1243.5794   -363.17363            0   -8.7414318            0            0            0            0            0            0 
10194000     847.6711    62172.327    527.30469   -362.44441     803.1873    440.74289    1209.3429   -362.44441            0   -8.4231935            0            0            0            0            0            0 
10195000    1022.2057    56984.443    513.49157   -375.37254    782.14724    406.77471    1256.2886   -375.37254            0   -9.1900441            0            0            0            0            0            0 
10196000    971.14744     60990.07    527.03655   -355.27195    802.77887    447.50692    1311.3208   -355.27195            0   -8.5864723            0            0            0            0            0            0 
10197000     970.8819    59164.216     501.9269   -362.35173    764.53201    402.18028    1239.9051   -362.35173            0   -8.8514576            0            0            0            0            0            0 
10198000     837.1061    61532.205    500.12203   -363.14893    761.78284    398.63391    1149.8396   -363.14893            0   -8.5108203            0            0            0            0            0            0 
10199000    897.76113    57826.236    511.34044   -394.08612    778.87066    384.78454    1141.8991   -394.08612            0    -9.056262            0            0            0            0            0            0 
10200000    811.47974        62027     522.5264   -360.40477    795.90904    435.50427     1169.569   -360.40477            0   -8.4429288            0            0            0            0            0            0 
10201000    918.31361    60330.999    557.23158   -373.24027    848.77176    475.53149    1283.5242   -373.24027            0   -8.6802731            0            0            0            0            0            0 
10202000    953.23249    59058.295    515.82218   -367.27535    785.69721    418.42186    1239.4454   -367.27535            0   -8.8673326            0            0            0            0            0            0 
10203000    906.65066    62227.991    538.54493   -348.53682    820.30837    471.77155    1294.5855   -348.53682            0   -8.4156589            0            0            0            0            0            0 
10204000    987.25185    59268.377    527.45408   -361.36229    803.41486    442.05257     1295.402   -361.36229            0   -8.8359016            0            0            0            0            0            0 
10205000    886.30955    61817.231    502.50432   -353.10356    765.41154    412.30798    1211.3523   -353.10356            0   -8.4715789            0            0            0            0            0            0 
10206000    746.58516    63492.959    494.31427   -348.78297    752.93651    404.15354    1095.4762   -348.78297            0    -8.247994            0            0            0            0            0            0 
10207000     807.4196    61715.511    498.40596   -361.71885    759.16893    397.45008    1124.1741   -361.71885            0   -8.4855418            0            0            0            0            0            0 
10208000    829.47709    61733.588     550.9278     -367.118    839.16989    472.05189    1218.8476     -367.118            0    -8.483057            0            0            0            0            0            0 
10209000    935.66157    60435.795    525.01736     -357.695    799.70325    442.00826    1266.6948     -357.695            0   -8.6652215            0            0            0            0            0            0 
10210000    944.48009    58246.774    533.03251   -376.93947    811.91188    434.97242    1237.2794   -376.93947            0   -8.9908764            0            0            0            0            0            0 
10211000    871.00007    60262.176    510.70512   -370.20737    777.90295    407.69558    1173.1845   -370.20737            0   -8.6901864            0            0            0            0            0            0 
10212000    839.77725    59437.715    491.18276   -383.69007     748.1666    364.47654    1092.4275   -383.69007            0   -8.8107281            0            0            0            0            0            0 
10213000    780.11896    62192.858    540.08786   -364.76161    822.65855    457.89693    1165.4797   -364.76161            0    -8.420413            0            0            0            0            0            0 
10214000    1202.0247    57391.935    542.37403   -353.29206    826.14083    472.84877    1478.9464   -353.29206            0   -9.1247932            0            0            0            0            0            0 
10215000    844.99048    62694.388    513.32956   -357.75847    781.90048    424.14201     1196.745   -357.75847            0   -8.3530531            0            0            0            0            0            0 
10216000    983.29637    59777.897    519.41501   -357.03819     791.1698    434.13161    1291.3687   -357.03819            0   -8.7605883            0            0            0            0            0            0 
10217000    823.47246    60225.804    519.77346    -371.5143    791.71578    420.20148    1143.4833    -371.5143            0   -8.6954346            0            0            0            0            0            0 
10218000     949.8278    59007.347    505.46808   -369.58392    769.92591    400.34199    1217.7273   -369.58392            0   -8.8749889            0            0            0            0            0            0 
10219000    822.88356    61407.321     501.1513   -367.66043    763.35062    395.69019    1132.6341   -367.66043            0   -8.5281289            0            0            0            0            0            0 
10220000    872.14389    59460.174    504.22951   -373.19523    768.03933     394.8441    1151.1373   -373.19523            0   -8.8074001            0            0            0            0            0            0 
10221000    856.85707    60430.313    518.89669   -367.99789    790.38029     422.3824    1177.5426   -367.99789            0   -8.6660075            0            0            0            0            0            0 
10222000    838.90964    60705.644     516.1989    -357.7462    786.27104    428.52483    1171.2363    -357.7462            0   -8.6267028            0            0            0            0            0            0 
10223000    925.96097    61404.103    518.96678   -347.01333    790.48705    443.47371    1272.6864   -347.01333            0   -8.5285758            0            0            0            0            0            0 
10224000    1019.8046    59467.776    547.40384   -352.45681    833.80221    481.34539     1365.798   -352.45681            0   -8.8062743            0            0            0            0            0            0 
10225000     885.6335    61713.657    505.03873   -350.19586    769.27194    419.07608    1216.1731   -350.19586            0   -8.4857966            0            0            0            0            0            0 
10226000    973.28045    59108.423    538.06405   -373.42399     819.5759    446.15191    1285.1544   -373.42399            0   -8.8598124            0            0            0            0            0            0 
10227000    949.85074    61553.893    520.95349   -340.32936     793.5132    453.18384    1305.8652   -340.32936            0   -8.5078216            0            0            0            0            0            0 
10228000    723.85822      60109.7    482.55479   -383.70098    735.02453    351.32355     985.8854   -383.70098            0   -8.7122302            0            0            0            0            0            0 
10229000    862.87656    58020.808    504.23054   -381.47062     768.0409    386.57028     1116.714   -381.47062            0   -9.0258919            0            0            0            0            0            0 
10230000    754.14339    61880.079    496.68991   -374.15812    756.55506    382.39694    1062.9793   -374.15812            0   -8.4629748            0            0            0            0            0            0 
10231000    887.88665      60740.4    512.47652   -360.01398    780.60112    420.58715    1207.1095   -360.01398            0   -8.6217664            0            0            0            0            0            0 
10232000    926.78277    59883.936    534.63586   -370.24025     814.3541    444.11385    1253.5157   -370.24025            0   -8.7450756            0            0            0            0            0            0 
10233000    806.10762    65069.934    502.32668   -338.96571    765.14095    426.17524    1191.1538   -338.96571            0   -8.0481033            0            0            0            0            0            0 
10234000    948.94321    56252.471    543.31462    -402.5168    827.57354    425.05674    1203.5551    -402.5168            0   -9.3096275            0            0            0            0            0            0 
10235000    815.03812    61185.367    520.81668   -371.31311    793.30481     421.9917    1149.2713   -371.31311            0   -8.5590652            0            0            0            0            0            0 
10236000    848.65878    59275.211    506.69792   -384.39402     771.7992    387.40518    1121.0437   -384.39402            0   -8.8348829            0            0            0            0            0            0 
10237000     748.5662      64268.7    530.50372   -352.03704    808.06005    456.02301    1157.6489   -352.03704            0   -8.1484384            0            0            0            0            0            0 
10238000    916.54805    59275.558    527.79632   -374.86339    803.93615    429.07276     1221.404   -374.86339            0   -8.8348312            0            0            0            0            0            0 
10239000    816.73316    61892.265    528.62525   -358.97491    805.19878    446.22387     1183.436   -358.97491            0   -8.4613084            0            0            0            0            0            0 
10240000    819.73022    59818.675    491.27033   -376.21674    748.29999    372.08324     1087.211   -376.21674            0   -8.7546162            0            0            0            0            0            0 
10241000    926.02202    62434.759    515.94315   -342.69551    785.88148    443.18597    1286.3725   -342.69551            0   -8.3877884            0            0            0            0            0            0 
10242000     1009.133    57780.845    531.75589   -382.17933    809.96734    427.78802    1278.1585   -382.17933            0   -9.0633764            0            0            0            0            0            0 
10243000    821.01138    62396.765    515.55241   -350.36741    785.28631    434.91889    1182.0334   -350.36741            0   -8.3928958            0            0            0            0            0            0 
10244000    936.91934    59492.963    505.38177   -360.65299    769.79445    409.14146    1222.0538   -360.65299            0    -8.802546            0            0            0            0            0            0 
10245000    765.24057    60495.908     517.5683   -378.35529    788.35689     410.0016     1085.151   -378.35529            0    -8.656611            0            0            0            0            0            0 
10246000     885.3333    59641.453    539.38043   -381.02693      821.581    440.55407    1210.6253   -381.02693            0   -8.7806303            0            0            0            0            0            0 
10247000    1029.6158    59157.891    499.93723   -349.13539    761.50135    412.36597    1300.6744   -349.13539            0   -8.8524038            0            0            0            0            0            0 
10248000    830.19755    60648.159    540.11889   -372.16788    822.70582    450.53793    1184.8404   -372.16788            0   -8.6348795            0            0            0            0            0            0 
10249000      910.681     61718.87    539.33759   -349.27537    821.51575    472.24039    1291.9502   -349.27537            0   -8.4850799            0            0            0            0            0            0 
10250000    945.28924    60789.858    535.69742   -361.16159    815.97106    454.80947     1292.863   -361.16159            0   -8.6147519            0            0            0            0            0            0 
10251000    982.91774    59785.527    535.90431   -361.11322     816.2862    455.17298    1312.1894   -361.11322            0   -8.7594703            0            0            0            0            0            0 
10252000    935.00427    61627.347    518.48924   -349.88751    789.75966    439.87215    1280.2275   -349.88751            0   -8.4976811            0            0            0            0            0            0 
10253000    763.11319     61753.66    530.80383   -375.48178    808.51717    433.03539    1120.3057   -375.48178            0   -8.4802998            0            0            0            0            0            0 
10254000    955.11126    57967.803    538.17534    -386.6918    819.74542    433.05363    1240.5056    -386.6918            0   -9.0341451            0            0            0            0            0            0 
10255000     1021.394    59688.234    505.83635   -353.34021    770.48686    417.14665    1306.2616   -353.34021            0   -8.7737484            0            0            0            0            0            0 
10256000    783.38199     61018.76    532.66568   -378.19376    811.35313    433.15937    1130.2879   -378.19376            0    -8.582435            0            0            0            0            0            0 
10257000    832.59241    62181.733    498.58652   -353.81362    759.44396    405.63035    1160.6724   -353.81362            0   -8.4219194            0            0            0            0            0            0 
10258000    978.50516    59221.911    503.34804   -361.77623    766.69668    404.92045    1250.0464   -361.77623            0   -8.8428342            0            0            0            0            0            0 
10259000    918.81926    61628.757    556.65424   -355.24645    847.89235     492.6459    1318.4735   -355.24645            0   -8.4974867            0            0            0            0            0            0 
10260000    944.31777    59655.444    507.99987   -367.24615    773.78232    406.53617    1228.1053   -367.24615            0    -8.778571            0            0            0            0            0            0 
10261000    880.94553    61096.313    490.40024   -354.73969    746.97468    392.23499    1177.1813   -354.73969            0   -8.5715408            0            0            0            0            0            0 
10262000    806.96181    58861.163    519.38616   -393.79245    791.12585     397.3334    1090.0534   -393.79245            0   -8.8970302            0            0            0            0            0            0 
10263000    944.72684    60215.977    536.91737    -358.8863    817.82928    458.94298     1288.591    -358.8863            0   -8.6968538            0            0            0            0            0            0 
10264000    949.15889    61301.552    523.99506   -347.60775    798.14609    450.53835    1299.1056   -347.60775            0   -8.5428431            0            0            0            0            0            0 
10265000    981.08156    60629.508    517.08482   -345.81059    787.62046    441.80987     1309.301   -345.81059            0   -8.6375358            0            0            0            0            0            0 
10266000    913.42894    60692.512    510.72885   -358.16493    777.93908    419.77415    1228.2849   -358.16493            0   -8.6285693            0            0            0            0            0            0 
10267000    758.12353    59686.903    485.72937   -382.85844    739.86004     357.0016    1016.9271   -382.85844            0    -8.773944            0            0            0            0            0            0 
10268000    858.28801    61663.664    522.22531   -355.51596    795.45043    439.93447     1211.794   -355.51596            0   -8.4926765            0            0            0            0            0            0 
10269000    1132.6819    59490.076    538.94276    -342.4363    820.91434    478.47804    1461.1948    -342.4363            0   -8.8029731            0            0            0            0            0            0 
10270000    770.95722    62956.556    505.91277   -357.55422    770.60326    413.04904    1120.9086   -357.55422            0   -8.3182686            0            0            0            0            0            0 
10271000    940.93246    56615.337      532.325   -402.73961    810.83421    408.09461    1185.0005   -402.73961            0    -9.249959            0            0            0            0            0            0 
10272000     966.1827    60835.161    536.85909   -355.70724     817.7405    462.03326    1319.2483   -355.70724            0   -8.6083367            0            0            0            0            0            0 
10273000    898.06606    61434.883    527.60604   -357.14492    803.64632     446.5014    1251.1369   -357.14492            0   -8.5243028            0            0            0            0            0            0 
10274000     944.2365    59073.439    496.04933   -365.09181    755.57934    390.48753    1203.9714   -365.09181            0   -8.8650594            0            0            0            0            0            0 
10275000    848.44249    60372.948    498.28915   -373.44262    758.99102    385.54839    1132.5829   -373.44262            0   -8.6742417            0            0            0            0            0            0 
10276000    897.58279    58504.181    488.08439    -380.5132    743.44718    362.93398    1128.7727    -380.5132            0   -8.9513183            0            0            0            0            0            0 
10277000    799.45838     61423.96    556.23834   -375.79371    847.25887    471.46516    1187.6243   -375.79371            0   -8.5258186            0            0            0            0            0            0 
10278000    868.56083    61234.473    515.84327   -363.70415    785.72934    422.02519    1197.6865   -363.70415            0   -8.5522014            0            0            0            0            0            0 
10279000     912.0893    57804.781    506.93303   -385.25872    772.15731    386.89859    1155.8112   -385.25872            0   -9.0596234            0            0            0            0            0            0 
10280000    748.28437    63497.077    507.56373   -359.22239      773.118    413.89561    1106.8367   -359.22239            0   -8.2474591            0            0            0            0            0            0 
10281000    1103.8184    56961.647    517.46879   -368.05466    788.20532    420.15066    1337.1226   -368.05466            0   -9.1937219            0            0            0            0            0            0 
10282000    895.76264    60799.419    513.48668   -365.62682     782.1398    416.51299    1210.7832   -365.62682            0   -8.6133972            0            0            0            0            0            0 
10283000    942.42199    60270.538    523.72575   -360.05871    797.73589    437.67718     1266.051   -360.05871            0   -8.6889807            0            0            0            0            0            0 
10284000    1034.4375    60940.032    497.18527    -332.0014    757.30959    425.30818    1344.6623    -332.0014            0   -8.5935226            0            0            0            0            0            0 
10285000    771.26529    62077.396    527.71812   -371.17126    803.81705    432.64579    1130.8994   -371.17126            0   -8.4360747            0            0            0            0            0            0 
10286000    1000.7626    59358.299    525.41175   -357.25449      800.304     443.0495    1309.3896   -357.25449            0   -8.8225161            0            0            0            0            0            0 
10287000    871.27912    62315.393    518.92552   -347.62411     790.4242    442.80009    1234.6239   -347.62411            0   -8.4038552            0            0            0            0            0            0 
10288000    1028.1542    58175.436    530.62323   -367.04384    808.24208    441.19824    1313.5142   -367.04384            0   -9.0019015            0            0            0            0            0            0 
10289000    770.30838    62463.939    510.43406   -361.50348    777.49007    415.98659    1117.7163   -361.50348            0     -8.38387            0            0            0            0            0            0 
10290000    953.65983    59966.544    502.86161    -358.5835    765.95576    407.37226     1241.396    -358.5835            0   -8.7330286            0            0            0            0            0            0 
10291000     816.1578      59629.3    503.62492   -384.15519    767.11843    382.96324    1092.7203   -384.15519            0   -8.7824199            0            0            0            0            0            0 
10292000    890.23609    59672.532     549.2894   -374.27012    836.67428    462.40416    1237.1434   -374.27012            0    -8.776057            0            0            0            0            0            0 
10293000     899.0397    60661.414    540.39608   -360.84634    823.12804     462.2817    1257.6482   -360.84634            0   -8.6329927            0            0            0            0            0            0 
10294000    871.39806    62296.031    500.38482   -354.20697    762.18312    407.97615    1199.6619   -354.20697            0   -8.4064673            0            0            0            0            0            0 
10295000    862.99996    57720.467    501.61482   -391.80599    764.05666    372.25067    1098.7187   -391.80599            0    -9.072857            0            0            0            0            0            0 
10296000    917.23647     61746.68    536.48353   -340.05753    817.16846    477.11093    1303.0934   -340.05753            0   -8.4812584            0            0            0            0            0            0 
10297000    957.52053    58587.131    525.75793   -380.77509     800.8313    420.05621    1238.1936   -380.77509            0   -8.9386446            0            0            0            0            0            0 
10298000    868.47098    59941.065    501.74914   -369.19285    764.26125    395.06839    1154.2675   -369.19285            0   -8.7367407            0            0            0            0            0            0 
10299000    807.36792    61548.491    515.79389   -374.83134    785.65413    410.82279    1135.5337   -374.83134            0   -8.5085684            0            0            0            0            0            0 
10300000    925.62913    58097.546    531.54265   -391.71124    809.64254     417.9313    1202.2105   -391.71124            0   -9.0139702            0            0            0            0            0            0 
10301000    791.68026    61015.286    544.76174   -368.93173    829.77778    460.84606    1165.3191   -368.93173            0   -8.5829237            0            0            0            0            0            0 
10302000    803.84685    62419.576    498.27317    -352.0221    758.96667    406.94457    1138.7069    -352.0221            0   -8.3898286            0            0            0            0            0            0 
10303000    940.66969    58407.732    512.51441   -377.55499    780.65885    403.10386    1204.3822   -377.55499            0   -8.9660997            0            0            0            0            0            0 
10304000    827.97835    61561.155    493.28646   -360.64625    751.37094    390.72469    1134.0889   -360.64625            0    -8.506818            0            0            0            0            0            0 
10305000    919.60703    60422.946    523.37439   -356.86625    797.20069    440.33445    1250.6983   -356.86625            0   -8.6670641            0            0            0            0            0            0 
10306000    940.37624    58893.967    512.40404   -376.24513    780.49072     404.2456    1211.9424   -376.24513            0   -8.8920746            0            0            0            0            0            0 
10307000    793.40426    63492.222    537.54738   -351.15633    818.78891    467.63257    1202.3003   -351.15633            0   -8.2480898            0            0            0            0            0            0 
10308000    995.74581    57497.591    542.35389   -377.32469    826.11016    448.78546    1283.7615   -377.32469            0   -9.1080259            0            0            0            0            0            0 
10309000    853.39401    62257.387    499.74866   -350.36175    761.21413    410.85238    1185.7001   -350.36175            0   -8.4116853            0            0            0            0            0            0 
10310000    802.22279    59659.206    509.86531   -387.34891    776.62375    389.27484    1087.2635   -387.34891            0   -8.7780173            0            0            0            0            0            0 
10311000    862.36087    61426.678    526.02899   -361.56448    801.24416    439.67968    1212.2214   -361.56448            0   -8.5254414            0            0            0            0            0            0 
10312000    1001.1888    57799.744     538.1214   -380.50101    819.66326    439.16224    1283.1143   -380.50101            0   -9.0604129            0            0            0            0            0            0 
10313000    717.63799    61009.979    520.69339    -383.7561    793.11701    409.36091    1047.8922    -383.7561            0   -8.5836703            0            0            0            0            0            0 
10314000    829.65877    63717.679     510.9807   -341.66034     778.3227    436.66236    1207.6286   -341.66034            0   -8.2189049            0            0            0            0            0            0 
10315000    1062.0056    57412.031    528.49549   -366.88577    805.00112    438.11535    1327.3279   -366.88577            0   -9.1215994            0            0            0            0            0            0 
10316000    905.07014    61611.625    516.84954   -353.96084    787.26208    433.30124    1246.5451   -353.96084            0   -8.4998496            0            0            0            0            0            0 
10317000    841.58432    61816.206    494.66795   -359.35807    753.47522    394.11714    1152.8273   -359.35807            0   -8.4717193            0            0            0            0            0            0 
10318000    887.46559      59848.4    515.15688   -366.60452    784.68383    418.07932    1192.6837   -366.60452            0   -8.7502682            0            0            0            0            0            0 
10319000    1072.6679     60787.41    550.59232   -336.64612    838.65888    502.01275    1452.9565   -336.64612            0   -8.6150988            0            0            0            0            0            0 
10320000    979.77026    60857.147    516.53006   -343.83035    786.77545     442.9451    1312.5295   -343.83035            0   -8.6052267            0            0            0            0            0            0 
10321000    825.46803    60739.898    517.72962   -359.10884    788.60262    429.49378    1160.7174   -359.10884            0   -8.6218377            0            0            0            0            0            0 
10322000    890.22457    59701.522    522.07943   -368.86313    795.22822     426.3651    1201.4707   -368.86313            0   -8.7717956            0            0            0            0            0            0 
10323000     1059.612    60131.575     514.2296   -340.62735    783.27142    442.64406    1371.8786   -340.62735            0   -8.7090609            0            0            0            0            0            0 
10324000    882.07664    62746.091    520.68893   -342.22604    793.11023    450.88418    1258.0614   -342.22604            0     -8.34617            0            0            0            0            0            0 
10325000    876.54224    57413.018    555.89771   -405.81712    846.74001    440.92289    1174.8605   -405.81712            0   -9.1214425            0            0            0            0            0            0 
10326000    855.82563    62728.559    561.39193   -353.00056    855.10879    502.10823    1285.0446   -353.00056            0   -8.3485027            0            0            0            0            0            0 
10327000    897.27887    60510.435    528.94828   -362.26757    805.69081    443.42324    1235.2562   -362.26757            0   -8.6545328            0            0            0            0            0            0 
10328000    850.32038    60928.507    527.85756   -362.25074    804.02943    441.77869    1197.3562   -362.25074            0   -8.5951481            0            0            0            0            0            0 
10329000    833.35076    60034.989     514.8425   -375.07869    784.20497    409.12629    1138.7655   -375.07869            0   -8.7230723            0            0            0            0            0            0 
10330000    803.94892    61659.294    523.99959   -372.71699    798.15299      425.436    1148.3771   -372.71699            0   -8.4932784            0            0            0            0            0            0 
10331000    902.70244    62172.402    512.15753   -344.50717    780.11525    435.60808    1254.1071   -344.50717            0   -8.4231835            0            0            0            0            0            0 
10332000    909.06204    60530.446    500.14239   -361.48091    761.81386    400.33295    1202.8297   -361.48091            0   -8.6516717            0            0            0            0            0            0 
10333000    798.78501    61385.573    542.64297   -380.18373    826.55049    446.36676    1161.4755   -380.18373            0   -8.5311502            0            0            0            0            0            0 
10334000    879.74905    60474.119    534.83857   -363.69266    814.66287    450.97021    1226.8675   -363.69266            0     -8.65973            0            0            0            0            0            0 
10335000    921.73276    59460.748    521.86825   -376.53491    794.90655    418.37164    1217.6743   -376.53491            0   -8.8073151            0            0            0            0            0            0 
10336000    888.14265    60793.192    520.40709   -368.80947    792.68093    423.87146    1211.3044   -368.80947            0   -8.6142795            0            0            0            0            0            0 
10337000    1029.7674    59196.357    522.72548   -353.65403    796.21228    442.55825    1331.5751   -353.65403            0   -8.8466516            0            0            0            0            0            0 
10338000    938.11355    59475.717    515.93057   -365.43744    785.86232    420.42488    1234.1374   -365.43744            0   -8.8050985            0            0            0            0            0            0 
10339000    802.76718    62280.034    532.75345   -362.17513    811.48682    449.31168    1178.4574   -362.17513            0   -8.4086266            0            0            0            0            0            0 
10340000    852.54898    59677.134    485.32298    -369.3172    739.24103    369.92382    1111.9226    -369.3172            0   -8.7753803            0            0            0            0            0            0 
10341000    814.53922    59966.982    491.65896   -373.37452    748.89195    375.51742    1087.8783   -373.37452            0   -8.7329649            0            0            0            0            0            0 
10342000    835.79918    60037.429    503.34725   -371.59347    766.69548    395.10201    1126.9147   -371.59347            0   -8.7227177            0            0            0            0            0            0 
10343000    706.82412     61912.48    465.97484   -375.01599    709.77006    334.75407    972.96677   -375.01599            0   -8.4585458            0            0            0            0            0            0 
10344000    962.16982    57704.735    497.03998   -386.29466    757.08829    370.79363    1180.5215   -386.29466            0   -9.0753306            0            0            0            0            0            0 
10345000    750.34838    61110.772    491.09037   -373.88288    748.02587    374.14299    1042.8819   -373.88288            0   -8.5695129            0            0            0            0            0            0 
10346000    885.90745    62588.267     520.9528   -346.80884    793.51215    446.70331    1255.3469   -346.80884            0    -8.367216            0            0            0            0            0            0 
10347000    1054.6338    59564.906    512.31871   -342.65305    780.36076    437.70771    1353.8608   -342.65305            0   -8.7919143            0            0            0            0            0            0 
10348000    822.27321    61393.449    541.13201   -369.86945      824.249    454.37955    1190.6105   -369.86945            0   -8.5300558            0            0            0            0            0            0 
10349000    1101.1861    57014.784    528.51096   -364.38922    805.02468    440.63546    1356.2741   -364.38922            0   -9.1851535            0            0            0            0            0            0 
10350000     687.3789    61487.103    498.95156   -377.17594    759.99999    382.82405     999.2148   -377.17594            0   -8.5170633            0            0            0            0            0            0 
10351000    870.45702     59916.17    506.94355   -372.96145    772.17334    399.21189    1159.8311   -372.96145            0   -8.7403708            0            0            0            0            0            0 
10352000    806.74987     62435.95    496.55712   -349.74841     756.3528    406.60439     1141.202   -349.74841            0   -8.3876283            0            0            0            0            0            0 
10353000    952.12366    60393.362    514.74034   -357.28847    784.04936    426.76089    1265.3678   -357.28847            0   -8.6713097            0            0            0            0            0            0 
[...]
14939000    801.88142    60365.306    506.88604   -374.87757    772.08574    397.20817    1103.1574   -374.87757            0   -8.6753399            0            0            0            0            0            0 
14940000    935.47401     59396.78    503.41399   -361.01627    766.79714    405.78087    1216.1269   -361.01627            0   -8.8168003            0            0            0            0            0            0 
14941000    974.77935    61234.961    547.74553   -348.52388    834.32268     485.7988    1356.3246   -348.52388            0   -8.5521332            0            0            0            0            0            0 
14942000    871.75023    62352.679    530.22039   -350.79504    807.62848    456.83344    1249.5594   -350.79504            0   -8.3988299            0            0            0            0            0            0 
14943000    909.75505    60843.962    500.76968    -358.9091    762.76934    403.86025    1211.1284    -358.9091            0   -8.6070915            0            0            0            0            0            0 
14944000    979.10335    59008.381    503.12949   -367.03744    766.36379    399.32635    1241.9199   -367.03744            0   -8.8748333            0            0            0            0            0            0 
14945000    735.81915    62409.325     509.7774   -369.00484    776.48984      407.485    1077.2099   -369.00484            0   -8.3912067            0            0            0            0            0            0 
14946000     896.3948    60488.529    522.24244   -368.33105    795.47651    427.14546    1217.9119   -368.33105            0    -8.657667            0            0            0            0            0            0 
14947000    1037.0986    59960.824    551.73169   -349.58334    840.39437    490.81103    1397.7197   -349.58334            0   -8.7338618            0            0            0            0            0            0 
14948000      962.035    60194.751    515.22886   -353.83634    784.79348    430.95714    1275.5072   -353.83634            0   -8.6999205            0            0            0            0            0            0 
14949000    944.16182    59966.915    519.25414   -357.80065    790.92476    433.12411    1258.8465   -357.80065            0   -8.7329746            0            0            0            0            0            0 
14950000    742.17697    60360.205    497.65637    -382.2205    758.02716    375.80666    1029.1389    -382.2205            0    -8.676073            0            0            0            0            0            0 
14951000    1067.3076    56244.726    501.23275   -376.48864    763.47469    386.98605    1262.4682   -376.48864            0   -9.3109093            0            0            0            0            0            0 
14952000    812.74364    61074.193    497.02397    -363.5579     757.0639    393.50601    1117.4204    -363.5579            0   -8.5746454            0            0            0            0            0            0 
14953000    864.50576    59778.066    512.46334   -375.59358    780.58105    404.98747    1158.6651   -375.59358            0   -8.7605635            0            0            0            0            0            0 
14954000     920.6422    58460.015    535.44287   -377.01174    815.58334     438.5716    1223.4921   -377.01174            0   -8.9580809            0            0            0            0            0            0 
14955000    840.65145    65426.438    563.72292   -336.35057    858.65933    522.30876    1324.4395   -336.35057            0   -8.0042496            0            0            0            0            0            0 
14956000    904.50687    59837.632     522.5033   -371.35556    795.87387     424.5183    1213.8548   -371.35556            0   -8.7518427            0            0            0            0            0            0 
14957000    923.21366    59268.593    499.48371   -360.60994    760.81056    400.20062    1198.2003   -360.60994            0   -8.8358694            0            0            0            0            0            0 
14958000    752.79986    60860.075    477.49386   -376.50385    727.31575     350.8119    1018.9833   -376.50385            0   -8.6048127            0            0            0            0            0            0 
14959000    903.52633    60732.218     524.9268   -358.52662    799.56531     441.0387    1241.3074   -358.52662            0    -8.622928            0            0            0            0            0            0 
14960000    1035.5951    59759.167    561.16209   -362.54048     854.7587    492.21822    1394.7664   -362.54048            0   -8.7633341            0            0            0            0            0            0 
14961000    912.81362    62005.534    532.67711   -348.97229    811.37055    462.39826    1287.8439   -348.97229            0   -8.4458517            0            0            0            0            0            0 
14962000    922.25798    57202.749    497.53942   -388.08405    757.84903    369.76498    1139.1526   -388.08405            0   -9.1549716            0            0            0            0            0            0 
14963000    810.21584    61796.259    501.93943    -361.8562    764.55109    402.69488    1132.8898    -361.8562            0   -8.4744538            0            0            0            0            0            0 
14964000    929.40412    58546.559    513.30618   -376.64761    781.86486    405.21725    1198.7811   -376.64761            0    -8.944839            0            0            0            0            0            0 
14965000    833.07864    59970.779    513.35984   -377.53836     781.9466    404.40824    1133.0291   -377.53836            0   -8.7324119            0            0            0            0            0            0 
14966000    844.77209    59858.227    550.78555   -375.76424     838.9532    463.18897    1200.6504   -375.76424            0   -8.7488315            0            0            0            0            0            0 
14967000    870.47152     60269.99    530.98517   -379.47977    808.79339    429.31362    1194.4372   -379.47977            0   -8.6890598            0            0            0            0            0            0 
14968000    936.09827    60923.799    495.32433   -359.03111    754.47502    395.44392    1227.1776   -359.03111            0   -8.5958124            0            0            0            0            0            0 
14969000    865.23473    61395.127    504.36131   -359.37271    768.24008    408.86737    1183.5855   -359.37271            0   -8.5298226            0            0            0            0            0            0 
14970000    824.93163    59591.124    503.26367   -375.87052    766.56818    390.69766    1107.6255   -375.87052            0    -8.788046            0            0            0            0            0            0 
14971000    899.82505    59997.652    530.97173   -364.78442    808.77292    443.98851    1231.3392   -364.78442            0   -8.7285006            0            0            0            0            0            0 
14972000    997.51511    62344.741    552.20793   -330.48971    841.11977    510.63006    1417.6048   -330.48971            0   -8.3998993            0            0            0            0            0            0 
14973000    952.44454    59464.534    513.60149   -358.20825    782.31467    424.10642    1250.0942   -358.20825            0   -8.8067544            0            0            0            0            0            0 
14974000    970.82314    59929.237    522.25134   -364.38471    795.49007    431.10536     1279.611   -364.38471            0   -8.7384651            0            0            0            0            0            0 
14975000    843.62373    60842.704    499.84345   -368.43774     761.3585    392.92076    1141.4921   -368.43774            0   -8.6072694            0            0            0            0            0            0 
14976000     872.6688    59646.468    473.70533   -367.26968    721.54509    354.27541    1113.3948   -367.26968            0   -8.7798919            0            0            0            0            0            0 
14977000    931.21471    62268.614    517.47065   -337.02968    788.20815    451.17847    1296.8368   -337.02968            0   -8.4101686            0            0            0            0            0            0 
14978000    832.05623    60728.005    519.23933   -370.09743     790.9022    420.80477    1157.7201   -370.09743            0   -8.6235263            0            0            0            0            0            0 
14979000    911.73407    61763.882     530.2221   -351.06046    807.63108    456.57063    1277.8268   -351.06046            0   -8.4788963            0            0            0            0            0            0 
14980000    794.32856    59095.252    505.36352   -393.58822    769.76666    376.17843    1060.7655   -393.58822            0   -8.8617871            0            0            0            0            0            0 
14981000    919.25693    60386.034    543.25024   -363.74846    827.47547    463.72701    1273.2875   -363.74846            0   -8.6723619            0            0            0            0            0            0 
14982000    977.80011    60046.047    518.32754   -350.92783    789.51336    438.58554    1294.8549   -350.92783            0   -8.7214658            0            0            0            0            0            0 
14983000    841.56299    62878.848    515.32224   -342.64215    784.93572    442.29357    1214.0266   -342.64215            0   -8.3285486            0            0            0            0            0            0 
14984000    932.01322     59060.41    525.98543   -372.89709    801.17781    428.28072    1231.0568   -372.89709            0    -8.867015            0            0            0            0            0            0 
14985000    898.04894    60287.791    512.39742   -366.85071    780.48065    413.62993    1203.2265   -366.85071            0   -8.6864942            0            0            0            0            0            0 
14986000    1095.5932    58554.073    528.82155   -353.28317    805.49777     452.2146    1387.7976   -353.28317            0   -8.9436911            0            0            0            0            0            0 
14987000    744.55414    60109.713    510.24869   -383.32627    777.20771    393.88144    1046.5863   -383.32627            0   -8.7122283            0            0            0            0            0            0 
14988000    852.87187    59437.579    510.97901   -378.01148    778.32013    400.30866    1139.6088   -378.01148            0   -8.8107483            0            0            0            0            0            0 
14989000    1064.5693    58816.259     544.2045   -363.62091      828.929    465.30808    1378.4688   -363.62091            0   -8.9038228            0            0            0            0            0            0 
14990000    975.76208    60491.677    536.47554   -359.67891    817.15629    457.47738    1318.3035   -359.67891            0   -8.6572166            0            0            0            0            0            0 
14991000     887.3601    57796.945     507.9562    -387.5525    773.71581     386.1633    1134.1273    -387.5525            0   -9.0608517            0            0            0            0            0            0 
14992000    914.12443    60099.384    541.76452   -365.60136    825.21243    459.61107      1260.83   -365.60136            0   -8.7137257            0            0            0            0            0            0 
14993000    912.40687    60325.142    534.62469   -370.62934    814.33708    443.70775    1246.4254   -370.62934            0   -8.6811158            0            0            0            0            0            0 
14994000    1069.8851    59114.808    537.25807     -354.526    818.34823    463.82223    1386.2011     -354.526            0   -8.8588555            0            0            0            0            0            0 
14995000    886.20073     61422.59    529.03411   -356.62673    805.82154    449.19481    1243.0406   -356.62673            0   -8.5260088            0            0            0            0            0            0 
14996000    878.40115    58349.997    539.39011   -386.22997    821.59574    435.36578    1182.8631   -386.22997            0   -8.9749713            0            0            0            0            0            0 
14997000     745.9722    63687.122    507.62532   -353.64392     773.2118    419.56789    1112.4353   -353.64392            0   -8.2228483            0            0            0            0            0            0 
14998000    960.47683    58612.489    549.17215    -371.5536    836.49569    464.94209    1285.9606    -371.5536            0   -8.9347774            0            0            0            0            0            0 
14999000    848.28643    61448.838    529.22197   -366.43335    806.10769    439.67435    1199.8817   -366.43335            0   -8.5223669            0            0            0            0            0            0 
15000000    1013.6833    60146.756    555.82988   -355.84747     846.6367    490.78923    1379.9707   -355.84747            0   -8.7068626            0            0            0            0            0            0 
Loop time of 1393.84 on 8 procs for 5000000 steps with 512 atoms

Pair  time (%) = 772.445 (55.4186)
Bond  time (%) = 0.490364 (0.0351808)
Neigh time (%) = 37.3794 (2.68176)
Comm  time (%) = 425.675 (30.5398)
Outpt time (%) = 0.223807 (0.0160569)
Other time (%) = 157.623 (11.3086)

Nlocal:    64 ave 67 max 57 min
Histogram: 1 0 0 0 0 2 0 0 1 4
Nghost:    1236.12 ave 1269 max 1212 min
Histogram: 2 1 0 1 1 1 0 1 0 1
Neighs:    5502.88 ave 5978 max 4713 min
Histogram: 1 0 0 0 1 2 0 2 0 2

Total # of neighbors = 44023
Ave neighs/atom = 85.9824
Ave special neighs/atom = 0
Neighbor list builds = 105144
Dangerous builds = 0

Averages
Group Pressure(MPa) Volume(m3) Temperature(K) PE(J) KE(J) ET(J) ET^2(J) H(J) H^2(J^2) V^2(m6) V*H(m3*J) Hconf(J) Uext*Hconf(J^2) V*Hconf(m3*J) Uext(J)
Block1 90.110712682287484654 6.0480748993260794395e-26 519.60839611909466385 -2.5345551484170911171e-18 5.4988528393668537771e-18 2.9642976909497672823e-18 8.8365369956477585501e-36 8.4069793258215659564e-18 7.1043924534450460678e-35 3.6605722521345216335e-51 5.0836389692966302704e-43 2.9081264864547164163e-18 -7.3385582406387147535e-36 1.7578216100407856775e-43 -2.5345551484170911171e-18
Block2 89.989178501685898937 6.0527911098127843004e-26 519.63669179866280956 -2.5313512260004105156e-18 5.4991522836774132349e-18 2.9678010576769950156e-18 8.8580998481988809568e-36 8.4068221619231662273e-18 7.1053012899967380902e-35 3.666338949790886671e-51 5.0872957550588576834e-43 2.9076698782457695554e-18 -7.3299207743086465967e-36 1.758689692707428658e-43 -2.5313512260004105156e-18
Block3 89.913589434692710256 6.0520929177185297144e-26 518.85811290889353131 -2.5303480706998074227e-18 5.4909128272508944661e-18 2.960564756551098599e-18 8.811802530735655094e-36 8.3948967520430861464e-18 7.0842548436459000004e-35 3.6654085499833623098e-51 5.0794820144672901362e-43 2.9039839247921916802e-18 -7.3159111031728958631e-36 1.7564718443056941112e-43 -2.5303480706998074227e-18
Block4 89.602877081144455929 6.0564916139947847761e-26 518.64981070401063334 -2.5320102543939106496e-18 5.4887084302870910865e-18 2.9566981758931865999e-18 8.7899047474333900046e-36 8.3758967966989846903e-18 7.0502376614698549573e-35 3.6709567837311811038e-51 5.0717913502398947253e-43 2.8871883664118893668e-18 -7.2800584580445156617e-36 1.7476898786956030501e-43 -2.5320102543939106496e-18
Block5 89.962661190850795379 6.0509608038312778614e-26 519.6080114036070654 -2.5325384251069977016e-18 5.4988487680434059947e-18 2.9663103429363955819e-18 8.8526186786193033455e-36 8.4030231687951765885e-18 7.0984064584421594208e-35 3.6639181238347907495e-51 5.083894200204027107e-43 2.9041744007517902383e-18 -7.3234663870911319995e-36 1.7563443672563420176e-43 -2.5325384251069977016e-18
Ave_blocks 89.915803778132271873 6.0520822689366905296e-26 519.27220458685383164 -2.5321606249236434813e-18 5.4952950297251314037e-18 2.9631344048014886928e-18 8.8297925601269989266e-36 8.3975236410563959218e-18 7.0885185413999392797e-35 3.6654389318949481374e-51 5.0812204578533399845e-43 2.9022286113312710662e-18 -7.3175829926511817767e-36 1.7554034786011709418e-43 -2.5321606249236434813e-18
Stdev_blocks 0.16940895437184178007 2.7298933240778375234e-29 0.42836618803478665463 1.402823329340078112e-21 4.5332651415133656091e-21 4.0310197580959717959e-21 2.5622257562068042724e-38 1.1668232195029263841e-20 2.056704900695429666e-37 3.383934786799692638e-54 5.3261165531179830953e-46 7.7132160044517346529e-21 2.0187531430941749727e-38 3.9540577399584936931e-46 1.402823329340078112e-21






Properties
Group rho(kg/m3) Cp(J/K) Cp_conf(J/K) Cp_id(J/K) Cp2(J/K) kT(1/Pa) aP(1/K) aP2(1/K) Cv(J/K) uJT(K/Pa) sos(m/s) Cv2(J/K) uJT2(K/Pa) sos2(m/s) CvNVT(J/K)
Block1 225.51364503935027983 9.8352260098366518313e-20 -9.1984647366951363538e-22 4.0546342038697573884e-20 3.9626495565028058744e-20 6.1104710302037955181e-09 -0.00042807238854588734907 -0.00045911056688087371804 9.740982150303999648e-20 -7.5172123503290933825e-07 855.98674831336029456 3.8542435843043313519e-20 -1.890374019193500468e-06 863.77274633387139602 1.3272745082999304199e-20
Block2 225.33792943999557679 1.0148819648471149125e-19 -1.9576873197598024924e-21 4.0547793922232196847e-20 3.8590106602472395859e-20 6.242797535161207855e-09 -0.00052208315712582809096 -0.00055933390819210861405 1.0011492750363637977e-19 -7.5820387516778227229e-07 848.8903057559765557 3.7013880405209769715e-20 -2.024362741102676798e-06 860.8924629713237664 1.3480667325347659593e-20
Block3 225.36392526706063677 9.9076468738911767394e-20 -9.4225981162013241939e-22 4.0507842644375662078e-20 3.9565582832755527402e-20 6.0562616216329257814e-09 -0.00052789653007597879975 -0.00046508559912391325133 9.7631537482220025417e-20 -7.7816476782369635119e-07 862.27477661274497223 3.8444041313694568819e-20 -1.8987573842324261882e-06 868.35988628260042788 1.2606984257340712981e-20
Block4 225.20024841880348276 9.335962169039051502e-20 -1.1535566132663201274e-21 4.0497153498942018153e-20 3.9343596885675699531e-20 6.5662621469439513358e-09 -0.00047281706108037621335 -0.0004149391411236838848 9.229016449912262416e-20 -8.0781215609174040908e-07 827.10051326196764876 3.85199407574043692e-20 -1.8706723055024850956e-06 831.09502830902533788 1.2881467761314636988e-20
Block5 225.40609007984852497 1.0013451054834018693e-19 -9.4472593874161190469e-22 4.054632229847887009e-20 3.9601596359737258186e-20 5.7717017660789612988e-09 -0.00032904214937601718258 -0.00042568970007446084143 9.954471788921257776e-20 -7.0759933860567084678e-07 879.32215505691272028 3.8614447654308691499e-20 -1.8659307364091392571e-06 887.86445350279370814 1.4384842089326234146e-20
Ave_blocks 225.36436764901174001 9.8482211512144088558e-20 -1.1836152314114760782e-21 4.0529090880545266618e-20 3.9345475649133784333e-20 6.1494988200041681924e-09 -0.00045598225724081752714 -0.00046483178307900807277 9.7398233775446311087e-20 -7.6070027454435971646e-07 854.71489980019237009 3.8226949194732141347e-20 -1.9100194372880454343e-06 862.3969154799227681 1.3325341303265711086e-20
Stdev_blocks 0.10164526238161719629 2.7704509836399311977e-21 3.9622862311055654483e-22 2.1980954819717376254e-23 3.9079485928487223097e-22 2.5897616817894928587e-10 7.3098774242294947928e-05 5.0960429298583417011e-05 2.7616935199324833812e-21 3.2957859355239458331e-08 17.092493012976252231 6.0896564984616320121e-22 5.8445149915663774687e-08 18.265360341853991599 6.103269644803943532e-22






