LAMMPS (28 Oct 2012)
Scanning data file ...
Reading data file ...
  orthogonal box = (0 0 0) to (100 100 100)
  2 by 2 by 2 MPI processor grid
  512 atoms
Finding 1-2 1-3 1-4 neighbors ...
  0 = max # of 1-2 neighbors
  0 = max # of 1-3 neighbors
  0 = max # of 1-4 neighbors
  1 = max # of special neighbors
WARNING: Resetting reneighboring criteria during minimization (min.cpp:173)
Setting up minimization ...
Memory usage per processor = 4.05499 Mbytes
Step Temp E_pair E_mol TotEng Press 
       0       540.15    1409.7233            0    2232.4766    450.12639 
     701       540.15   -217.27527            0    605.47794    37.381488 
Loop time of 0.0553974 on 8 procs for 701 steps with 512 atoms

Minimization stats:
  Stopping criterion = energy tolerance
  Energy initial, next-to-last, final = 
         1409.72334813     -217.256630745     -217.275265106
  Force two-norm initial, final = 5034.49 0.337455
  Force max component initial, final = 2457.89 0.147661
  Final line search alpha, max atom move = 0.254892 0.0376377
  Iterations, force evaluations = 701 710

Pair  time (%) = 0.00897196 (16.1956)
Bond  time (%) = 6.38664e-05 (0.115288)
Neigh time (%) = 0.00314093 (5.66981)
Comm  time (%) = 0.0224219 (40.4747)
Outpt time (%) = 0 (0)
Other time (%) = 0.0207987 (37.5446)

Nlocal:    64 ave 74 max 52 min
Histogram: 1 0 0 1 1 2 0 2 0 1
Nghost:    235.125 ave 266 max 224 min
Histogram: 4 0 2 0 0 1 0 0 0 1
Neighs:    316.25 ave 371 max 226 min
Histogram: 1 0 0 1 1 1 0 1 0 3

Total # of neighbors = 2530
Ave neighs/atom = 4.94141
Ave special neighs/atom = 0
Neighbor list builds = 60
Dangerous builds = 0
Setting up run ...
Memory usage per processor = 3.36354 Mbytes
Step Temp E_pair E_mol TotEng Press Volume 
     701       540.15   -217.27527            0    605.47794    37.381488      1000000 
 5000701    563.58689   -343.90642            0    514.54571     1090.876    60645.259 
Loop time of 1379.69 on 8 procs for 5000000 steps with 512 atoms

Pair  time (%) = 750.866 (54.4227)
Bond  time (%) = 0.4607 (0.0333915)
Neigh time (%) = 37.1968 (2.69603)
Comm  time (%) = 432.307 (31.3336)
Outpt time (%) = 4.29749e-05 (3.11482e-06)
Other time (%) = 158.861 (11.5142)

Nlocal:    64 ave 69 max 58 min
Histogram: 3 0 0 0 0 1 0 0 2 2
Nghost:    1229.12 ave 1255 max 1204 min
Histogram: 1 1 0 0 2 1 1 1 0 1
Neighs:    5441.38 ave 5968 max 4805 min
Histogram: 1 0 2 1 0 0 1 0 0 3

Total # of neighbors = 43531
Ave neighs/atom = 85.0215
Ave special neighs/atom = 0
Neighbor list builds = 107188
Dangerous builds = 13
Setting up run ...
Memory usage per processor = 3.96728 Mbytes
Step Press Volume Temp PotEng KinEng TotEng Enthalpy E_vdwl E_coul E_tail E_long E_bond E_angle E_dihed E_impro E_mol 
10000000     1090.876    60645.259    563.58689   -343.90642    858.45213    514.54571    1479.3698   -343.90642            0   -8.6352924            0            0            0            0            0            0 
10001000     870.3414    64472.398    527.09665   -337.33064    802.87042    465.53978    1283.8903   -337.33064            0   -8.1226938            0            0            0            0            0            0 
10002000     734.5929     62168.64    532.20193   -377.14488    810.64675    433.50188    1099.5322   -377.14488            0   -8.4236932            0            0            0            0            0            0 
10003000    908.93124     61463.67    555.35974   -358.38429     845.9206     487.5363    1302.2882   -358.38429            0   -8.5203104            0            0            0            0            0            0 
10004000    711.16377    65532.158    539.94629   -349.35611    822.44292    473.08681    1152.7597   -349.35611            0   -7.9913368            0            0            0            0            0            0 
10005000    911.41946    59162.187    532.02064   -377.65985    810.37061    432.71076    1219.1015   -377.65985            0   -8.8517611            0            0            0            0            0            0 
10006000    823.26209    62442.346    519.97788   -355.92858    792.02715    436.09856    1185.8084   -355.92858            0   -8.3867693            0            0            0            0            0            0 
10007000    824.80164    62215.892    526.26788   -353.05417    801.60804    448.55387    1196.9417   -353.05417            0   -8.4172954            0            0            0            0            0            0 
10008000    720.91878     63143.13    543.03966   -363.96217    827.15471    463.19254    1127.0706   -363.96217            0     -8.29369            0            0            0            0            0            0 
10009000    988.00267    62896.672    534.32607   -327.17095    813.88223    486.71128    1392.9898   -327.17095            0   -8.3261885            0            0            0            0            0            0 
10010000    977.61852    61016.949    551.82998   -354.35439    840.54408    486.18969    1356.1427   -354.35439            0   -8.5826898            0            0            0            0            0            0 
10011000    901.78307    63476.316    532.99253   -334.52615    811.85099    477.32484    1312.1388   -334.52615            0   -8.2501566            0            0            0            0            0            0 
10012000     1073.223    62554.531    540.72451   -325.23626    823.62829    498.39203    1477.4866   -325.23626            0   -8.3717285            0            0            0            0            0            0 
10013000    964.12924    62194.323    561.81925    -345.6153    855.75967    510.14437    1384.6486    -345.6153            0   -8.4202145            0            0            0            0            0            0 
10014000    791.18356    61988.763     542.2283   -376.72447    825.91886    449.19439     1164.458   -376.72447            0   -8.4481368            0            0            0            0            0            0 
10015000    903.85266    62735.512    543.75507   -342.00419    828.24442    486.24023    1313.2049   -342.00419            0   -8.3475775            0            0            0            0            0            0 
10016000    910.89893    62644.883    552.08591   -353.57871    840.93391     487.3552    1319.5628   -353.57871            0    -8.359654            0            0            0            0            0            0 
10017000     919.2856    63686.526    528.91232   -338.04483    805.63604    467.59121    1321.4261   -338.04483            0   -8.2229252            0            0            0            0            0            0 
10018000    887.75076    61072.863    523.90888    -353.6946    798.01483    444.32024    1235.0266    -353.6946            0    -8.574832            0            0            0            0            0            0 
10019000    786.04658    64483.332    543.24459   -341.79125    827.46686    485.67561    1224.8921   -341.79125            0   -8.1213164            0            0            0            0            0            0 
10020000    1060.8295    61256.768    529.05275   -334.58165    805.84993    471.26828    1418.9784   -334.58165            0   -8.5490887            0            0            0            0            0            0 
10021000    735.10237    62367.046    515.47698   -372.45116    785.17141    412.72025    1081.3395   -372.45116            0   -8.3968952            0            0            0            0            0            0 
10022000    764.69229    61913.691    515.21202    -364.5542    784.76783    420.21363    1110.6908    -364.5542            0   -8.4583803            0            0            0            0            0            0 
10023000     771.9655    64155.978     496.4605   -347.44059    756.20562    408.76503    1131.0539   -347.44059            0   -8.1627552            0            0            0            0            0            0 
10024000    982.35924    59755.378     540.6255   -363.60632    823.47748    459.87116    1315.9686   -363.60632            0   -8.7638897            0            0            0            0            0            0 
10025000    845.57401    62521.307    516.57921   -355.30283    786.85032    431.54749    1202.5496   -355.30283            0   -8.3761771            0            0            0            0            0            0 
10026000    795.33178    60844.002    537.36634   -377.20926    818.51315    441.30388    1147.0394   -377.20926            0   -8.6070858            0            0            0            0            0            0 
10027000    702.92165    62751.479    528.39208   -364.87838    804.84361    439.96523    1083.2552   -364.87838            0   -8.3454534            0            0            0            0            0            0 
10028000    733.32229     63625.97    520.46096    -353.1201    792.76298    439.64287    1120.1069    -353.1201            0   -8.2307515            0            0            0            0            0            0 
10029000      935.307     61748.99    569.99012   -357.01392     868.2055    511.19157    1353.4783   -357.01392            0    -8.480941            0            0            0            0            0            0 
10030000    851.85363    63317.518    551.04171   -350.98691    839.34339    488.35648    1274.9761   -350.98691            0   -8.2708477            0            0            0            0            0            0 
10031000    891.75114    65915.865    525.66792   -309.53123    800.69418    491.16295    1348.4169   -309.53123            0   -7.9448179            0            0            0            0            0            0 
10032000    990.22497    59262.749    542.67596   -364.19274    826.60073    462.40799     1318.246   -364.19274            0   -8.8367408            0            0            0            0            0            0 
10033000     735.8098    61247.366    537.47902   -380.88298    818.68479    437.80181    1095.0492   -380.88298            0    -8.550401            0            0            0            0            0            0 
10034000    840.01583    62089.531    526.95164   -349.43695    802.64954    453.21259    1213.8571   -349.43695            0   -8.4344259            0            0            0            0            0            0 
10035000    780.70143     63546.87    530.96155   -355.27134    808.75742    453.48608    1177.0136   -355.27134            0   -8.2409967            0            0            0            0            0            0 
10036000    910.41447    65813.034    558.09317   -322.12666    850.08412    527.95747    1401.7875   -322.12666            0   -7.9572314            0            0            0            0            0            0 
10037000    882.41665    60102.846    518.48233   -361.19909    789.74914    428.55005    1202.0221   -361.19909            0   -8.7132237            0            0            0            0            0            0 
10038000    851.38214    63495.144    503.98868   -332.99496     767.6725    434.67754    1223.0672   -332.99496            0   -8.2477102            0            0            0            0            0            0 
10039000    909.58166    60930.824    548.68523   -358.55858    835.75402    477.19544     1285.462   -358.55858            0   -8.5948213            0            0            0            0            0            0 
10040000    833.29615    64656.418     518.0114   -333.32716    789.03182    455.70466    1241.4592   -333.32716            0   -8.0995756            0            0            0            0            0            0 
10041000    1193.3657    58147.105    523.07266   -336.28201     796.7411    460.45909    1472.4521   -336.28201            0   -9.0062875            0            0            0            0            0            0 
10042000     773.5234    62490.242    542.38895   -363.12312    826.16356    463.04043    1167.9957   -363.12312            0   -8.3803411            0            0            0            0            0            0 
10043000    1007.9699    60145.253    526.63886   -354.09032    802.17312     448.0828    1332.2305   -354.09032            0   -8.7070803            0            0            0            0            0            0 
10044000    706.50448    65043.269    499.03786   -345.51094    760.13145    414.62051    1084.8031   -345.51094            0   -8.0514026            0            0            0            0            0            0 
10045000    926.31719    62574.044    528.97337   -331.92545    805.72904    473.80358    1319.1405   -331.92545            0   -8.3691178            0            0            0            0            0            0 
10046000      843.995    62676.353     546.5388   -352.42755    832.48458    480.05703    1251.5278   -352.42755            0   -8.3554565            0            0            0            0            0            0 
10047000    945.23797     59570.63    559.03457    -376.1169    851.51807    475.40117    1296.6017    -376.1169            0   -8.7910694            0            0            0            0            0            0 
10048000     900.7628    61793.718    533.96389   -352.69698    813.33056    460.63358    1272.3992   -352.69698            0   -8.4748024            0            0            0            0            0            0 
10049000    890.00399    60905.436      492.485   -354.35981    750.15016    395.79035    1186.3304   -354.35981            0    -8.598404            0            0            0            0            0            0 
10050000    674.61428    65770.562    517.66055   -353.55485     788.4974    434.94255      1082.03   -353.55485            0     -7.96237            0            0            0            0            0            0 
10051000    951.67037    60974.431    538.16256   -348.33353    819.72595    471.39242    1317.6649   -348.33353            0   -8.5886745            0            0            0            0            0            0 
10052000    889.42923    62867.869    549.25363   -346.32262    836.61979    490.29717    1305.7823   -346.32262            0   -8.3300031            0            0            0            0            0            0 
10053000    925.22641    59764.564    510.11184   -365.80024    776.99925    411.19902    1217.6309   -365.80024            0   -8.7625427            0            0            0            0            0            0 
10054000    898.73554    65710.419    565.35527   -328.58617    861.14572    532.55955    1393.8349   -328.58617            0   -7.9696577            0            0            0            0            0            0 
10055000    850.28916     63539.19    551.25848   -343.41098    839.67357    496.26258    1284.1864   -343.41098            0   -8.2419927            0            0            0            0            0            0 
10056000    993.33982    61308.707    544.21543   -340.83845    828.94564    488.10719    1376.2768   -340.83845            0   -8.5418462            0            0            0            0            0            0 
10057000    797.53046    62681.451    535.67332   -358.11566    815.93435    457.81869    1186.8769   -358.11566            0    -8.354777            0            0            0            0            0            0 
10058000    648.97877    63561.949    522.41787    -367.5429    795.74373    428.20082     1029.795    -367.5429            0   -8.2390416            0            0            0            0            0            0 
10059000    947.48832    60655.535    548.58517   -357.04331    835.60161     478.5583    1316.7053   -357.04331            0   -8.6338295            0            0            0            0            0            0 
10060000    900.22868    60773.617    539.88844   -363.62473     822.3548    458.73007    1256.6215   -363.62473            0   -8.6170541            0            0            0            0            0            0 
10061000     852.1758    62735.915    544.94355   -349.54129    830.05471    480.51342    1260.2023   -349.54129            0   -8.3475238            0            0            0            0            0            0 
10062000    813.43535    65737.768    498.58734   -321.15111    759.44521    438.29411    1218.1492   -321.15111            0   -7.9663421            0            0            0            0            0            0 
10063000     864.1874    60134.249    520.32583    -370.2116    792.55715    422.34555    1180.2347    -370.2116            0   -8.7086736            0            0            0            0            0            0 
10064000    937.92406    61375.562    541.25554   -350.94946    824.43716    473.48769    1313.0232   -350.94946            0   -8.5325417            0            0            0            0            0            0 
10065000    855.04194    63725.583    518.10572   -347.55052    789.17549    441.62497    1236.2772   -347.55052            0   -8.2178855            0            0            0            0            0            0 
10066000    875.22044    61481.006    565.65401   -360.24499    861.60076    501.35577    1286.1112   -360.24499            0   -8.5179079            0            0            0            0            0            0 
10067000    836.23731    62010.631    568.99364   -359.24805    866.68766    507.43961    1263.7004   -359.24805            0   -8.4451574            0            0            0            0            0            0 
10068000    892.58635    61347.201    515.39447   -354.94658    785.04573    430.09915    1228.6837   -354.94658            0   -8.5364864            0            0            0            0            0            0 
10069000    783.92673    63344.786    522.42765   -349.69574    795.75863    446.06289    1170.2691   -349.69574            0   -8.2672873            0            0            0            0            0            0 
10070000    882.93884    60939.384    515.23709   -356.30675    784.80601    428.49926    1213.2009   -356.30675            0   -8.5936141            0            0            0            0            0            0 
10071000    822.95809    63302.925    539.66543   -354.68331    822.01512    467.33181    1227.0935   -354.68331            0   -8.2727543            0            0            0            0            0            0 
10072000     897.7265    60453.479    547.23551   -369.58776    833.54581    463.95805    1255.4404   -369.58776            0   -8.6626866            0            0            0            0            0            0 
10073000    914.49917    61342.426    541.67478   -343.19808    825.07574    481.87766    1300.0036   -343.19808            0   -8.5371509            0            0            0            0            0            0 
10074000    833.46007    63585.468    527.75923    -346.5441    803.87965    457.33555    1230.2271    -346.5441            0   -8.2359942            0            0            0            0            0            0 
10075000    906.22504    59825.652    542.81454   -373.19545    826.81181    453.61637    1244.2939   -373.19545            0   -8.7535952            0            0            0            0            0            0 
10076000    807.61911    64373.307    522.36061   -341.86052    795.65652    453.79599    1212.0039   -341.86052            0   -8.1351971            0            0            0            0            0            0 
10077000    926.80128    62750.234    532.55673   -338.76094    811.18718    472.42624    1320.5864   -338.76094            0   -8.3456189            0            0            0            0            0            0 
10078000     952.3741    62113.692    559.58414   -354.66701    852.35517    497.68817      1360.41   -354.66701            0    -8.431145            0            0            0            0            0            0 
10079000    858.80133    61571.978    554.78141    -364.8494    845.03968    480.19027    1251.3631    -364.8494            0   -8.5053228            0            0            0            0            0            0 
10080000     794.0969    66615.421    519.32752   -323.51659    791.03653    467.51993     1238.999   -323.51659            0   -7.8613861            0            0            0            0            0            0 
10081000    877.14077     61796.39    553.82973   -358.07063    843.59008    485.51945    1276.0311   -358.07063            0   -8.4744358            0            0            0            0            0            0 
10082000    854.89984    62502.273    508.62449   -348.07836    774.73374    426.65538    1205.9236   -348.07836            0    -8.378728            0            0            0            0            0            0 
10083000    1020.4609    60788.376    559.75311   -344.99206    852.61254    507.62047    1412.2959   -344.99206            0   -8.6149619            0            0            0            0            0            0 
10084000    932.13275     62367.45    544.17392   -346.23926    828.88242    482.64316    1330.4787   -346.23926            0   -8.3968408            0            0            0            0            0            0 
10085000    858.13878    63253.501    537.42974   -352.68525    818.60972    465.92448    1257.5467   -352.68525            0   -8.2792184            0            0            0            0            0            0 
10086000     796.1889      63325.2    547.27523   -352.53446     833.6063    481.07184    1216.3786   -352.53446            0   -8.2698443            0            0            0            0            0            0 
10087000     899.7294    61484.282    563.15378   -362.49292    857.79242     495.2995    1302.0735   -362.49292            0    -8.517454            0            0            0            0            0            0 
10088000    976.63287    61674.542    589.69813   -350.30335    898.22461    547.92125    1426.3634   -350.30335            0   -8.4911785            0            0            0            0            0            0 
10089000    732.52233    63985.173    557.18413   -356.43093    848.69949    492.26856    1175.8277   -356.43093            0   -8.1845453            0            0            0            0            0            0 
10090000    872.92039    62984.932    574.79163   -358.93118    875.51913    516.58795     1318.427   -358.93118            0   -8.3145211            0            0            0            0            0            0 
10091000    869.31568    64523.617    549.18416   -341.68996    836.51398    494.82402    1312.8594   -341.68996            0   -8.1162459            0            0            0            0            0            0 
10092000    843.50291    60211.137    530.51315   -377.17505    808.07441    430.89936    1171.5942   -377.17505            0   -8.6975529            0            0            0            0            0            0 
10093000    700.13984    62582.304    532.85432    -370.3446    811.64047    441.29586    1080.3126    -370.3446            0   -8.3680132            0            0            0            0            0            0 
10094000    1020.5312    62473.575    553.08495    -331.9887    842.45565    510.46695    1440.2862    -331.9887            0   -8.3825768            0            0            0            0            0            0 
10095000     959.0136    62364.402    535.12354   -336.80642    815.09693    478.29051    1350.5334   -336.80642            0   -8.3972511            0            0            0            0            0            0 
10096000    858.52732    62581.233    524.01641   -351.99384    798.17862    446.18478    1229.7481   -351.99384            0   -8.3681564            0            0            0            0            0            0 
10097000    919.27001    61965.617    528.80907   -347.31715    805.47877    458.16162    1288.9105   -347.31715            0   -8.4512923            0            0            0            0            0            0 
10098000    793.79566    66148.893    528.94458   -327.15701    805.68517    478.52816    1244.3138   -327.15701            0   -7.9168301            0            0            0            0            0            0 
10099000    914.90937    63148.201     506.2339   -337.32765    771.09241    433.76476    1276.3521   -337.32765            0    -8.293024            0            0            0            0            0            0 
10100000    1007.8115    63713.214     563.0996   -321.58108     857.7099    536.12882    1472.5791   -321.58108            0   -8.2194809            0            0            0            0            0            0 
10101000     792.0962    64367.137    570.24059   -352.21995      868.587    516.36705    1259.9305   -352.21995            0   -8.1359769            0            0            0            0            0            0 
10102000    943.31646    57536.162    542.43764   -387.69234    826.23772    438.54538    1230.0878   -387.69234            0     -9.10192            0            0            0            0            0            0 
10103000    784.28586    64122.905    559.50186   -347.19212    852.22983    505.03771    1238.4758   -347.19212            0   -8.1669654            0            0            0            0            0            0 
10104000    878.57866    61932.914    524.93824    -361.0826    799.58274    438.50014     1232.057    -361.0826            0    -8.455755            0            0            0            0            0            0 
10105000    919.19409    64207.152     528.6576   -329.92427    805.24804    475.32378    1336.0529   -329.92427            0   -8.1562493            0            0            0            0            0            0 
10106000    948.47044    59590.735    540.43419   -369.68693    823.18608    453.49915    1277.7861   -369.68693            0   -8.7881034            0            0            0            0            0            0 
10107000    908.03065    63400.876    555.63254   -346.65604    846.33611    499.68007    1339.2786   -346.65604            0   -8.2599734            0            0            0            0            0            0 
10108000    806.34116    64932.572    537.97044   -339.14448    819.43332    480.28884    1243.8737   -339.14448            0   -8.0651286            0            0            0            0            0            0 
10109000    856.61761    61318.141    567.36295   -363.07322    864.20381    501.13059    1267.1713   -363.07322            0   -8.5405319            0            0            0            0            0            0 
10110000    952.82316    61803.886    530.52462   -345.22677    808.09188    462.86512    1321.6887   -345.22677            0   -8.4734081            0            0            0            0            0            0 
10111000    1038.7975    62250.395    509.56528   -314.03467    776.16674    462.13207    1405.2129   -314.03467            0     -8.41263            0            0            0            0            0            0 
10112000    941.43989    63103.716    594.12001   -347.37898       904.96    557.58101    1423.9909   -347.37898            0   -8.2988702            0            0            0            0            0            0 
10113000     855.7255    61598.374    543.61564   -360.26137    828.03205    467.77068    1236.5109   -360.26137            0   -8.5016781            0            0            0            0            0            0 
10114000    827.00046    63064.857    546.76439     -355.723    832.82821     477.1052    1237.7275     -355.723            0   -8.3039837            0            0            0            0            0            0 
10115000    779.24622    62677.385    542.99966   -361.01698    827.09378    466.07681    1178.3744   -361.01698            0    -8.355319            0            0            0            0            0            0 
10116000    786.93971    62299.644    548.15543   -374.29387    834.94703    460.65316     1175.648   -374.29387            0   -8.4059797            0            0            0            0            0            0 
10117000    899.65328    61465.754    503.34592   -344.97758    766.69345    421.71587    1228.1785   -344.97758            0   -8.5200215            0            0            0            0            0            0 
10118000     915.1774    62789.418    514.54428   -344.74758    783.75072    439.00315    1277.0487   -344.74758            0   -8.3404109            0            0            0            0            0            0 
10119000    955.71261    64014.384    532.26108   -332.31304    810.73685    478.42381    1370.6619   -332.31304            0   -8.1808105            0            0            0            0            0            0 
10120000     920.5709    61997.368    544.73118   -354.85307    829.73124    474.87817    1307.2289   -354.85307            0   -8.4469641            0            0            0            0            0            0 
10121000    1025.5676    62734.321    553.68215   -338.80248    843.36529    504.56281    1442.8707   -338.80248            0   -8.3477359            0            0            0            0            0            0 
10122000    873.63118    62622.784    525.61985   -358.35962    800.62097    442.26135    1240.1392   -358.35962            0    -8.362604            0            0            0            0            0            0 
10123000    744.74572    61675.405    530.03507   -372.27906     807.3462    435.06714    1104.9455   -372.27906            0   -8.4910597            0            0            0            0            0            0 
10124000    772.50034    65246.976    527.80015   -334.03164    803.94198    469.91034    1204.9909   -334.03164            0   -8.0262654            0            0            0            0            0            0 
10125000    815.20899     64288.45    542.42598   -350.75044    826.21996    475.46952    1239.7941   -350.75044            0   -8.1459352            0            0            0            0            0            0 
10126000    910.99518    63006.588    526.69972    -340.3755    802.26583    461.89033    1298.9915    -340.3755            0   -8.3116633            0            0            0            0            0            0 
10127000    1041.8052     61124.12    538.98734   -343.44628    820.98225    477.53597     1406.235   -343.44628            0   -8.5676415            0            0            0            0            0            0 
10128000    915.12798    61866.709    554.66989   -349.79488    844.86981    495.07492    1320.7606   -349.79488            0   -8.4648036            0            0            0            0            0            0 
10129000    1012.7789    60634.057    579.66688   -358.31542    882.94508    524.62966    1420.2154   -358.31542            0   -8.6368878            0            0            0            0            0            0 
10130000    763.75246     67421.68    545.66369   -324.61141    831.15162    506.54021    1257.5197   -324.61141            0   -7.7673761            0            0            0            0            0            0 
10131000    799.17174    60419.461    528.33244   -376.96581    804.75278    427.78696    1131.9818   -376.96581            0    -8.667564            0            0            0            0            0            0 
10132000    994.23223    60929.942    539.88423   -357.32347    822.34839    465.02491    1348.5004   -357.32347            0   -8.5949457            0            0            0            0            0            0 
10133000    938.74496    62307.332    580.80128   -345.48275    884.67298    539.19023     1392.217   -345.48275            0   -8.4049426            0            0            0            0            0            0 
10134000    951.78295    61086.067     539.2505   -351.84942    821.38309    469.53367    1317.4558   -351.84942            0   -8.5729785            0            0            0            0            0            0 
10135000    805.90302    62532.098    498.95752   -355.19479    760.00907    404.81429    1139.7709   -355.19479            0   -8.3747317            0            0            0            0            0            0 
10136000    875.76704    62127.523    549.04345   -354.56793    836.29965    481.73172    1275.2346   -354.56793            0    -8.429268            0            0            0            0            0            0 
10137000    1018.4657    62787.379    552.20231   -318.52251    841.11121     522.5887    1455.1871   -318.52251            0   -8.3406817            0            0            0            0            0            0 
10138000    855.63517    62212.628    520.18316   -353.07531    792.33983    439.26452    1215.5886   -353.07531            0   -8.4177371            0            0            0            0            0            0 
10139000    834.73812     62927.93    551.95512   -353.27158    840.73469    487.46311    1253.5351   -353.27158            0   -8.3220526            0            0            0            0            0            0 
10140000    890.95445    64412.493    543.53816   -332.72138    827.91402    495.19264    1332.1465   -332.72138            0    -8.130248            0            0            0            0            0            0 
10141000     1039.397    61720.656    533.86865    -322.7657    813.18549    490.41979    1426.0147    -322.7657            0   -8.4848344            0            0            0            0            0            0 
10142000    877.56362     62124.43    543.58686   -355.44494    827.98821    472.54327    1267.6344   -355.44494            0   -8.4296877            0            0            0            0            0            0 
10143000    899.37824    63278.483    503.86925   -337.95885    767.49058    429.53173    1259.5245   -337.95885            0   -8.2759497            0            0            0            0            0            0 
10144000    946.04753    59783.262    506.71603    -354.9709    771.82679    416.85589    1241.6935    -354.9709            0   -8.7598021            0            0            0            0            0            0 
10145000    872.14102    63687.035    555.03894   -337.02082    845.43194    508.41112    1318.4645   -337.02082            0   -8.2228596            0            0            0            0            0            0 
10146000    931.23531    62300.835    562.56672   -353.13795    856.89821    503.76026    1349.8749   -353.13795            0   -8.4058191            0            0            0            0            0            0 
10147000    997.66643    62183.011     534.4767   -340.39815    814.11167    473.71352    1378.4727   -340.39815            0   -8.4217463            0            0            0            0            0            0 
10148000    822.36072    59388.661    493.31835   -382.54879    751.41953    368.87073     1081.136   -382.54879            0   -8.8180055            0            0            0            0            0            0 
10149000    809.31049    62910.838    598.79999   -364.90744    912.08851    547.18108    1289.7154   -364.90744            0   -8.3243136            0            0            0            0            0            0 
10150000    985.70027    61403.084    529.84346   -343.02667    807.05434    464.02767    1346.7232   -343.02667            0   -8.5287173            0            0            0            0            0            0 
10151000    741.54233    63012.208    541.33711   -364.14412    824.56141    460.41729    1141.8713   -364.14412            0   -8.3109219            0            0            0            0            0            0 
10152000    926.64224    60670.254    561.74707   -366.22147    855.64974    489.42826    1309.3338   -366.22147            0   -8.6317348            0            0            0            0            0            0 
10153000    873.31069    61622.745    540.72372   -361.44695    823.62709    462.18014    1247.0284   -361.44695            0   -8.4983158            0            0            0            0            0            0 
10154000     732.0237    64590.444    531.69453   -356.06527    809.87388    453.80861    1143.3642   -356.06527            0   -8.1078486            0            0            0            0            0            0 
10155000    915.84685    62076.478     517.9852    -343.8533    788.99192    445.13862    1274.2747    -343.8533            0   -8.4361994            0            0            0            0            0            0 
10156000    990.59644    59559.714    571.50467   -359.57644    870.51245    510.93601    1371.3853   -359.57644            0   -8.7926806            0            0            0            0            0            0 
10157000    804.67539    65050.872      553.844   -345.20921    843.61183    498.40261    1261.7984   -345.20921            0   -8.0504615            0            0            0            0            0            0 
10158000    1006.3866    61209.861     571.1184    -343.7759    869.92408    526.14818    1424.5324    -343.7759            0   -8.5556402            0            0            0            0            0            0 
10159000    1035.6484    61051.386    528.43849   -337.63465    804.91431    467.27966    1389.3918   -337.63465            0   -8.5778486            0            0            0            0            0            0 
10160000    751.03876    64811.886     542.1551   -347.41457    825.80736     478.3928    1188.2858   -347.41457            0   -8.0801467            0            0            0            0            0            0 
10161000    966.59981    61423.021    534.13053   -347.08624    813.58438    466.49814    1332.3703   -347.08624            0    -8.525949            0            0            0            0            0            0 
10162000    878.00442    63610.782    554.54394    -340.9888    844.67797    503.68917    1318.2121    -340.9888            0   -8.2327167            0            0            0            0            0            0 
10163000    780.66412     63683.72    568.27224   -361.23664    865.58884     504.3522    1229.4032   -361.23664            0   -8.2232876            0            0            0            0            0            0 
10164000    867.23027     63341.99    567.41131   -354.44001    864.27746    509.83745    1310.9656   -354.44001            0   -8.2676523            0            0            0            0            0            0 
10165000    763.83168    61617.112    506.47609   -360.30829    771.46131    411.15302    1097.5493   -360.30829            0   -8.4990926            0            0            0            0            0            0 
10166000    757.37357    61459.724    521.37388   -374.45305    794.15353    419.70047    1098.5549   -374.45305            0   -8.5208574            0            0            0            0            0            0 
10167000    914.35765    65597.845    543.23581   -318.83166    827.45349    508.62184     1383.367   -318.83166            0   -7.9833345            0            0            0            0            0            0 
10168000    908.21609    60584.984    526.48006   -361.94375    801.93123    439.98748    1242.4598   -361.94375            0   -8.6438836            0            0            0            0            0            0 
10169000    841.20308    63546.364    526.69356   -346.86815    802.25643    455.38828    1234.9804   -346.86815            0   -8.2410623            0            0            0            0            0            0 
10170000    983.21222    59717.687    562.79602   -354.70895    857.24749    502.53854    1358.8389   -354.70895            0   -8.7694212            0            0            0            0            0            0 
10171000    862.15634    62379.874    550.67489   -351.31171    838.78466    487.47295    1271.8166   -351.31171            0   -8.3951683            0            0            0            0            0            0 
10172000    975.27375    63919.829    572.49575   -333.84332    872.02205    538.17873    1447.3339   -333.84332            0   -8.1929122            0            0            0            0            0            0 
10173000    951.01813    60893.953    531.30173    -343.3256    809.27557    465.94997    1310.5262    -343.3256            0   -8.6000255            0            0            0            0            0            0 
10174000    746.66316    63631.574    541.54064   -359.97151    824.87142    464.89991    1157.8043   -359.97151            0   -8.2300266            0            0            0            0            0            0 
10175000    901.71611    61927.866    540.41661   -356.87353    823.15931    466.28578    1280.6747   -356.87353            0   -8.4564442            0            0            0            0            0            0 
10176000    827.21544    65012.414    556.68804   -336.49987    847.94385    511.44398    1295.7595   -336.49987            0   -8.0552239            0            0            0            0            0            0 
10177000    1037.7382    61501.726    616.26811   -357.69512    938.69585    581.00072    1511.7892   -357.69512            0   -8.5150382            0            0            0            0            0            0 
10178000    1019.1125    64528.519    593.90079   -320.40018    904.62609    584.22591    1543.2946   -320.40018            0   -8.1156294            0            0            0            0            0            0 
10179000     840.6317    63032.775    532.65767   -351.84166    811.34093    459.49927    1232.2654   -351.84166            0   -8.3082102            0            0            0            0            0            0 
10180000    798.48122     61356.35    537.65476   -366.19498    818.95246    452.75748     1167.254   -366.19498            0   -8.5352135            0            0            0            0            0            0 
10181000    856.55908    64724.096    527.57196   -342.35622    803.59441     461.2382    1269.7739   -342.35622            0   -8.0911064            0            0            0            0            0            0 
10182000    868.33205    61677.162    558.16191   -359.35742    850.18884    490.83142    1271.8945   -359.35742            0   -8.4908178            0            0            0            0            0            0 
10183000    789.72391    61700.366    527.64636   -372.59951    803.70774    431.10823    1141.7307   -372.59951            0   -8.4876246            0            0            0            0            0            0 
10184000     881.2751    63526.159    532.89418   -341.09434    811.70118    470.60684    1287.0764   -341.09434            0   -8.2436834            0            0            0            0            0            0 
10185000    862.71535    63475.792    548.05505   -346.26692    834.79413    488.52721    1287.1681   -346.26692            0   -8.2502246            0            0            0            0            0            0 
10186000     979.6824    59506.112    524.58938   -355.74557    799.05136    443.30579    1293.5091   -355.74557            0   -8.8006009            0            0            0            0            0            0 
10187000    866.02021     61896.86    571.86657    -359.2136    871.06369     511.8501    1293.6085    -359.2136            0   -8.4606804            0            0            0            0            0            0 
10188000    922.65095    61294.921    555.74665   -357.82752    846.50993    488.68242    1313.4618   -357.82752            0   -8.5437674            0            0            0            0            0            0 
10189000    848.22561    61885.054    506.03463   -360.06385    770.78889    410.72503    1176.2741   -360.06385            0   -8.4622944            0            0            0            0            0            0 
10190000    823.75607    61313.303    534.31671   -370.37462    813.86797    443.49335    1180.0891   -370.37462            0   -8.5412059            0            0            0            0            0            0 
10191000    696.02937    62585.378    546.70631   -383.29377    832.73974    449.44597    1084.7423   -383.29377            0   -8.3676022            0            0            0            0            0            0 
10192000    930.94058    61890.104    531.19529    -347.5432    809.11345    461.57025    1301.8406    -347.5432            0   -8.4616039            0            0            0            0            0            0 
10193000    916.14472    64045.906    542.82701   -336.60359     826.8308    490.22721    1345.9466   -336.60359            0   -8.1767841            0            0            0            0            0            0 
10194000    1136.8852    59771.948    557.41444   -347.24728    849.05029    501.80302    1492.8401   -347.24728            0   -8.7614602            0            0            0            0            0            0 
10195000    963.34246    61147.193    566.61481   -351.38068    863.06424    511.68356    1370.7626   -351.38068            0   -8.5644086            0            0            0            0            0            0 
10196000    831.44636    62760.057    553.16914    -362.7903    842.58389    479.79359     1240.809    -362.7903            0   -8.3443128            0            0            0            0            0            0 
10197000    850.69802    62702.014    512.80388   -349.54208    781.09976    431.55768    1209.4739   -349.54208            0   -8.3520371            0            0            0            0            0            0 
10198000     1001.262    61301.347    557.41901   -343.20248    849.05726    505.85478    1401.0003   -343.20248            0   -8.5428717            0            0            0            0            0            0 
10199000    836.06337    64440.878    549.94831   -344.50614    837.67793    493.17179    1278.9076   -344.50614            0   -8.1266668            0            0            0            0            0            0 
10200000    872.44863    60651.526    521.78365   -358.84699    794.77769     435.9307    1207.6467   -358.84699            0   -8.6344002            0            0            0            0            0            0 
10201000    877.68064    61925.965    522.22798   -351.54955    795.45449    443.90493    1236.5617   -351.54955            0   -8.4567038            0            0            0            0            0            0 
10202000    803.26737     62131.28    516.30545   -356.82209    786.43333    429.61124    1157.4687   -356.82209            0   -8.4287583            0            0            0            0            0            0 
10203000    861.76636      64376.6    574.19412   -346.71411      874.609    527.89489    1336.9786   -346.71411            0   -8.1347811            0            0            0            0            0            0 
10204000    950.90393     59891.84    507.95549   -360.69153    773.71472    413.02319    1243.6007   -360.69153            0   -8.7439214            0            0            0            0            0            0 
10205000    807.63964    61329.016    546.33893   -371.40347    832.18014    460.77667    1183.1464   -371.40347            0   -8.5390175            0            0            0            0            0            0 
10206000    949.53664     63184.79    557.02882   -332.32041    848.46293    516.14252    1391.1266   -332.32041            0   -8.2882216            0            0            0            0            0            0 
10207000    801.91103    62147.524    567.51228   -371.61948    864.43127    492.81179    1219.6302   -371.61948            0   -8.4265552            0            0            0            0            0            0 
10208000    860.76555    60507.953    542.66818   -365.58959    826.58888    460.99929    1220.5788   -365.58959            0   -8.6548878            0            0            0            0            0            0 
10209000    852.18791    62807.567    526.34084    -346.0808    801.71918    455.63838    1236.2288    -346.0808            0   -8.3380008            0            0            0            0            0            0 
10210000    958.37599    61745.881    543.53706    -347.7161    827.91236    480.19626    1343.2142    -347.7161            0   -8.4813682            0            0            0            0            0            0 
10211000    1115.5622    61830.916     566.3927   -321.30116    862.72592    541.42476    1547.3724   -321.30116            0   -8.4697038            0            0            0            0            0            0 
10212000     992.3663    64104.134    566.36691   -326.81673    862.68664    535.86991    1463.6262   -326.81673            0   -8.1693569            0            0            0            0            0            0 
10213000     928.0723    61668.683    521.68673   -349.18084    794.63006    445.44922    1280.1338   -349.18084            0   -8.4919853            0            0            0            0            0            0 
10214000    806.32226    64640.668    511.45294   -340.36065    779.04202    438.68137    1198.8157   -340.36065            0   -8.1015491            0            0            0            0            0            0 
10215000    1075.5175    58903.517    572.71538   -368.95818    872.35659     503.3984    1427.3189   -368.95818            0   -8.8906329            0            0            0            0            0            0 
10216000    799.71072    63598.795    512.15006   -353.63903    780.10387    426.46484    1168.2151   -353.63903            0   -8.2342683            0            0            0            0            0            0 
10217000    1014.0717    61941.284     539.2884   -338.89696    821.44083    482.54387    1398.6056   -338.89696            0   -8.4546123            0            0            0            0            0            0 
10218000    900.29923    61714.244    550.30802   -350.17463    838.22584     488.0512    1298.3556   -350.17463            0    -8.485716            0            0            0            0            0            0 
10219000    856.29147    61734.895    557.30658   -361.90528      848.886    486.98072    1257.9343   -361.90528            0   -8.4828773            0            0            0            0            0            0 
10220000    848.22703    61371.803    546.94896   -372.81134    833.10934      460.298    1219.4992   -372.81134            0   -8.5330644            0            0            0            0            0            0 
10221000    920.02822    62178.679    550.92511   -348.05311    839.16579    491.11267    1325.4055   -348.05311            0    -8.422333            0            0            0            0            0            0 
10222000    827.61382     64720.37    500.58927   -332.11711    762.49454    430.37743    1211.5457   -332.11711            0   -8.0915722            0            0            0            0            0            0 
10223000    878.28707     63527.54    526.24821   -339.89987    801.57809    461.67822    1275.3972   -339.89987            0   -8.2435042            0            0            0            0            0            0 
10224000    826.30775    66093.745    574.82897   -328.33907      875.576    547.23694    1343.7228   -328.33907            0   -7.9234358            0            0            0            0            0            0 
10225000    1007.5892    59952.484    566.93868   -363.43033    863.55755    500.12722    1381.1083   -363.43033            0   -8.7350767            0            0            0            0            0            0 
10226000    873.75202    63976.244    511.51928   -334.54477    779.14306    444.59829    1259.8333   -334.54477            0   -8.1856876            0            0            0            0            0            0 
10227000    1058.7056    61525.402    558.00895   -340.74678    849.95584    509.20906    1459.1696   -340.74678            0   -8.5117615            0            0            0            0            0            0 
10228000    1047.3049    63511.568    526.95312   -316.30531     802.6518    486.34649    1456.4138   -316.30531            0   -8.2455773            0            0            0            0            0            0 
10229000     894.5748    61978.361    523.25653   -351.60914    797.02117    445.41204      1254.01   -351.60914            0   -8.4495546            0            0            0            0            0            0 
10230000    757.68639    61082.821    521.64817   -374.76739    794.57133    419.80394    1094.7739   -374.76739            0   -8.5734342            0            0            0            0            0            0 
10231000    770.88045    64613.435    569.45093   -346.49895    867.38421    520.88526    1247.3018   -346.49895            0   -8.1049637            0            0            0            0            0            0 
10232000    800.02639    64814.703    543.38051   -343.58294    827.67389    484.09096    1240.3207   -343.58294            0   -8.0797955            0            0            0            0            0            0 
10233000    1025.2055    60047.043    561.09807   -362.25781    854.66118    492.40337     1390.201   -362.25781            0   -8.7213211            0            0            0            0            0            0 
10234000    799.52159    64438.017    544.88866   -337.74507    829.97111    492.22604    1243.5863   -337.74507            0   -8.1270277            0            0            0            0            0            0 
10235000    1074.4737     58955.85    541.19609   -354.67383     824.3466    469.67277    1393.5166   -354.67383            0   -8.8827409            0            0            0            0            0            0 
10236000    910.82206    62316.394     525.6484   -349.78031    800.66445    450.88414    1278.6581   -349.78031            0   -8.4037203            0            0            0            0            0            0 
10237000    912.28506    62280.223    540.60262   -350.10005    823.44263    473.34258    1301.9649   -350.10005            0    -8.408601            0            0            0            0            0            0 
10238000    863.80219     62271.34    564.04138   -365.28378    859.14441    493.86064    1278.3344   -365.28378            0   -8.4098005            0            0            0            0            0            0 
10239000    878.38497    63477.484    538.07405   -340.60333    819.59113     478.9878    1292.1562   -340.60333            0   -8.2500048            0            0            0            0            0            0 
10240000    953.25756    59618.599    539.80255   -363.03742    822.22398    459.18656    1288.0212   -363.03742            0   -8.7839962            0            0            0            0            0            0 
10241000     854.0312    64363.461     543.0108   -336.87525    827.11076    490.23551    1291.8933   -336.87525            0   -8.1364417            0            0            0            0            0            0 
10242000    848.93795      61296.2    546.24984   -367.74363    832.04445    464.30082    1223.2023   -367.74363            0   -8.5435891            0            0            0            0            0            0 
10243000    838.09867    60195.462    497.69499   -364.70547    758.08599    393.38052    1129.1382   -364.70547            0   -8.6998177            0            0            0            0            0            0 
10244000    827.79184    60508.624    519.14806   -372.40016    790.76318    418.36301    1148.8531   -372.40016            0   -8.6547918            0            0            0            0            0            0 
10245000    773.37588    62422.154    519.54053   -362.92859    791.36099    428.43241    1132.4853   -362.92859            0   -8.3894821            0            0            0            0            0            0 
10246000    822.38389    63119.424    542.04425   -348.88738    825.63851    476.75113    1233.7819   -348.88738            0   -8.2968049            0            0            0            0            0            0 
10247000     965.2412    60115.752    557.72361   -367.30416    849.52122    482.21707    1328.4697   -367.30416            0   -8.7113532            0            0            0            0            0            0 
10248000    889.95654    63217.621    586.78913    -346.1842    893.79364    547.60944    1368.1175    -346.1842            0   -8.2839173            0            0            0            0            0            0 
10249000    985.35713    58156.436    535.06831   -376.70237    815.01281    438.31044     1274.043   -376.70237            0   -9.0048425            0            0            0            0            0            0 
10250000    800.26066    63823.084    535.70604   -352.06013    815.98419    463.92406     1208.802   -352.06013            0   -8.2053313            0            0            0            0            0            0 
10251000    1015.3201    62187.462    556.12963   -340.51179    847.09328    506.58149    1427.4163   -340.51179            0   -8.4211435            0            0            0            0            0            0 
10252000    964.69854    62609.648    566.72148   -345.57889    863.22672    517.64783    1398.5116   -345.57889            0   -8.3643586            0            0            0            0            0            0 
10253000    902.11521    59723.993    535.91544    -374.2585    816.30315    442.04465    1227.7989    -374.2585            0   -8.7684952            0            0            0            0            0            0 
10254000    925.31028    62890.676    565.45439   -339.00959     861.2967    522.28711     1370.978   -339.00959            0   -8.3269823            0            0            0            0            0            0 
10255000     923.6017    60699.886    555.53728    -372.4282    846.19102    473.76282    1291.3771    -372.4282            0   -8.6275211            0            0            0            0            0            0 
10256000    833.24706    63299.824    536.64319   -352.85417    817.41165    464.55749    1233.7803   -352.85417            0   -8.2731595            0            0            0            0            0            0 
10257000    726.05944    62398.047    513.47691   -361.11981    782.12492    421.00511    1081.7276   -361.11981            0   -8.3927234            0            0            0            0            0            0 
10258000    705.87439    63528.646    535.00019   -361.75361    814.90905    453.15544    1107.1482   -361.75361            0   -8.2433607            0            0            0            0            0            0 
10259000     942.4085    60167.415    524.25287   -365.07114    798.53879    433.46765    1260.4123   -365.07114            0   -8.7038731            0            0            0            0            0            0 
10260000    932.87084    61413.634    558.76801    -359.1378    851.11204    491.97424    1327.5045    -359.1378            0   -8.5272522            0            0            0            0            0            0 
10261000    970.45663    63026.644    556.32599   -321.26507    847.39238    526.12731    1418.1506   -321.26507            0   -8.3090183            0            0            0            0            0            0 
10262000    907.69282    58362.285    513.94502    -379.1865    782.83794    403.65145    1176.2379    -379.1865            0   -8.9730816            0            0            0            0            0            0 
10263000    956.28729    63494.564    570.43208   -337.95172    868.87869    530.92697     1416.452   -337.95172            0   -8.2477855            0            0            0            0            0            0 
10264000    869.11582    61450.972    551.49749   -359.06083    840.03763     480.9768    1259.8779   -359.06083            0   -8.5220709            0            0            0            0            0            0 
10265000     834.3675    62084.605    540.05189   -359.78075    822.60377    462.82301     1218.293   -359.78075            0    -8.435095            0            0            0            0            0            0 
10266000    815.18705    61980.611    496.01349   -361.42857    755.52474    394.09617     1130.963   -361.42857            0   -8.4492479            0            0            0            0            0            0 
10267000    887.09023    59492.551     512.8787   -373.86011    781.21373    407.35362    1177.0267   -373.86011            0    -8.802607            0            0            0            0            0            0 
10268000    846.46263    65605.588    514.95184   -331.30984    784.37152    453.06168    1262.9488   -331.30984            0   -7.9823924            0            0            0            0            0            0 
10269000    915.11361    61996.558    554.06679   -356.17176    843.95118    487.77942    1315.1851   -356.17176            0   -8.4470746            0            0            0            0            0            0 
10270000    761.46125    64169.503    526.84555   -351.76202    802.48795    450.72593    1163.3367   -351.76202            0   -8.1610348            0            0            0            0            0            0 
10271000    895.65363    62003.521    516.11799   -352.82203    786.14779    433.32577    1243.2275   -352.82203            0   -8.4461259            0            0            0            0            0            0 
10272000    971.24402    64808.572    589.29422   -321.23742    897.60938    576.37196    1494.3593   -321.23742            0   -8.0805599            0            0            0            0            0            0 
10273000    1032.6292    60190.603    521.77587    -362.1821    794.76584    432.58374    1339.0445    -362.1821            0     -8.70052            0            0            0            0            0            0 
10274000    750.66588    65034.588    562.82529   -350.40475    857.29207    506.88733     1218.866   -350.40475            0   -8.0524773            0            0            0            0            0            0 
10275000    801.86557    62203.193    525.34431   -360.25457    800.20126     439.9467    1167.3749   -360.25457            0   -8.4190138            0            0            0            0            0            0 
10276000    902.28682    62505.305    545.26973   -339.68618    830.55155    490.86537    1313.3682   -339.68618            0   -8.3783215            0            0            0            0            0            0 
10277000    853.17008    63206.154    565.35747   -350.48621    861.14907    510.66286    1297.1124   -350.48621            0   -8.2854202            0            0            0            0            0            0 
10278000    911.21646     61027.05    519.96098   -353.89805    792.00141    438.10337    1249.1014   -353.89805            0   -8.5812693            0            0            0            0            0            0 
10279000    935.69777    61633.001    524.70321   -334.47278    799.22474    464.75197    1305.8077   -334.47278            0   -8.4969017            0            0            0            0            0            0 
10280000    887.43143    63753.824    575.67434   -342.67334    876.86366    534.19032      1359.31   -342.67334            0   -8.2142453            0            0            0            0            0            0 
10281000    793.78888    61886.369    533.08995   -365.61375    811.99937    446.38562    1162.8191   -365.61375            0   -8.4621146            0            0            0            0            0            0 
10282000    793.46744     62569.96    531.21531   -357.43912    809.14394    451.70482    1175.7587   -357.43912            0    -8.369664            0            0            0            0            0            0 
10283000    988.78577    57884.099    533.67309   -377.62547    812.88762    435.26215    1269.9755   -377.62547            0   -9.0472091            0            0            0            0            0            0 
10284000    816.30711     64875.24    567.34675    -349.3609    864.17913    514.81823    1287.1581    -349.3609            0    -8.072256            0            0            0            0            0            0 
10285000    1003.6627    61886.294    556.07599   -348.76761    847.01157    498.24396    1404.0978   -348.76761            0   -8.4621249            0            0            0            0            0            0 
10286000    866.70272    61946.518    562.78685   -361.74571    857.23351     495.4878    1278.4899   -361.74571            0    -8.453898            0            0            0            0            0            0 
10287000    735.79373    62727.098    501.74949   -357.16317    764.26178    407.09861    1080.2104   -357.16317            0   -8.3486971            0            0            0            0            0            0 
10288000    851.57201     59264.04    524.23897    -377.0423    798.51762    421.47532    1157.4935    -377.0423            0   -8.8365482            0            0            0            0            0            0 
10289000    802.72679    64843.957    543.34095   -341.72514    827.61364     485.8885    1245.0133   -341.72514            0   -8.0761504            0            0            0            0            0            0 
10290000    936.68645    62010.232    574.80326    -343.4905    875.53684    532.04634     1379.144    -343.4905            0   -8.4452118            0            0            0            0            0            0 
10291000    886.75615    63237.783     545.9377   -344.55569    831.56899     487.0133    1304.8314   -344.55569            0   -8.2812761            0            0            0            0            0            0 
10292000    961.94609    60041.034    552.30469   -359.80254    841.26716    481.46462    1323.7801   -359.80254            0    -8.722194            0            0            0            0            0            0 
10293000    830.20429    63370.704    536.66715   -351.76113    817.44814    465.68701    1232.9591   -351.76113            0    -8.263906            0            0            0            0            0            0 
10294000    837.89322    62218.783    510.29308    -356.1773    777.27533    421.09804    1181.3999    -356.1773            0   -8.4169044            0            0            0            0            0            0 
10295000    916.38359    60208.644    547.18651   -360.97973    833.47117    472.49145    1277.1507   -360.97973            0    -8.697913            0            0            0            0            0            0 
10296000    881.52812    65515.355    531.73031   -312.28372    809.92838    497.64466    1339.9221   -312.28372            0   -7.9933864            0            0            0            0            0            0 
10297000    927.87742    62383.305    498.36419   -332.12371    759.10531    426.98159    1271.1612   -332.12371            0   -8.3947066            0            0            0            0            0            0 
10298000    889.96295    62518.584    560.23681   -350.51362    853.34931    502.83569    1314.2767   -350.51362            0    -8.376542            0            0            0            0            0            0 
10299000    879.91647    61042.853    559.54352   -371.25676     852.2933    481.03654    1264.3799   -371.25676            0   -8.5790476            0            0            0            0            0            0 
10300000    817.02798    63961.291    549.48088    -344.3207    836.96594    492.64524     1254.777    -344.3207            0   -8.1876012            0            0            0            0            0            0 
10301000    886.71038    60486.928    548.98719   -366.53723    836.21396    469.67673    1251.8793   -366.53723            0   -8.6578962            0            0            0            0            0            0 
10302000    849.41673        63293     530.1855   -351.88226    807.57534    455.69309    1239.7587   -351.88226            0   -8.2740515            0            0            0            0            0            0 
10303000    880.26726    61891.356    535.13017   -356.17713    815.10702    458.92989    1253.4784   -356.17713            0   -8.4614327            0            0            0            0            0            0 
10304000    905.77816    61261.776    537.64822   -356.93326    818.94251    462.00925    1271.2678   -356.93326            0   -8.5483898            0            0            0            0            0            0 
10305000    865.91583    61734.665    556.21576   -357.24159    847.22448    489.98288    1269.5987   -357.24159            0    -8.482909            0            0            0            0            0            0 
10306000    960.71091    62565.358    575.46933   -345.62337    876.55139    530.92802    1407.5302   -345.62337            0   -8.3702796            0            0            0            0            0            0 
10307000    850.00887    62622.737    550.06896   -355.17632    837.86171    482.68539    1258.9886   -355.17632            0   -8.3626103            0            0            0            0            0            0 
10308000    887.42792    63562.305    540.09378   -343.59711    822.66756    479.07045    1301.7082   -343.59711            0   -8.2389955            0            0            0            0            0            0 
10309000    931.48724    60754.838    559.82089   -366.81975    852.71579    485.89604    1311.2375   -366.81975            0   -8.6197175            0            0            0            0            0            0 
10310000    753.31491    64606.298    544.49668   -348.70547    829.37404    480.66857    1190.4544   -348.70547            0   -8.1058591            0            0            0            0            0            0 
10311000    852.02296    61411.912    513.32813   -361.94738     781.8983    419.95092     1183.048   -361.94738            0   -8.5274913            0            0            0            0            0            0 
10312000    791.14345     62664.49    543.03045   -359.61501    827.14068    467.52567    1190.5495   -359.61501            0   -8.3570384            0            0            0            0            0            0 
10313000    977.54904    60635.408    544.34136   -347.27907    829.13746    481.85839    1346.3101   -347.27907            0   -8.6366953            0            0            0            0            0            0 
10314000    773.54843     64667.38    522.79097   -334.17077    796.31203    462.14126    1191.6805   -334.17077            0   -8.0982026            0            0            0            0            0            0 
10315000    730.83628    64892.476     521.9919   -345.67407     795.0949    449.42083    1141.0771   -345.67407            0   -8.0701119            0            0            0            0            0            0 
10316000    796.26549    63817.034    530.47726   -350.55909    808.01975    457.46065    1198.5497   -350.55909            0   -8.2061091            0            0            0            0            0            0 
10317000    940.56226    60337.735    542.95844   -363.23101      827.031    463.79999    1291.4609   -363.23101            0    -8.679304            0            0            0            0            0            0 
10318000    927.35283    61943.016    529.83968   -333.79479    807.04859     473.2538    1311.0015   -333.79479            0    -8.454376            0            0            0            0            0            0 
10319000    924.37892    61720.515    541.14001   -353.27667    824.26118    470.98451    1303.0461   -353.27667            0   -8.4848538            0            0            0            0            0            0 
10320000    858.33819    62480.998     501.1623   -343.71942    763.36738    419.64795     1201.784   -343.71942            0    -8.381581            0            0            0            0            0            0 
10321000    930.90227     63669.97    543.09281   -328.24671    827.23568    498.98896    1363.3887   -328.24671            0   -8.2250635            0            0            0            0            0            0 
10322000    883.62532    61486.911    526.31191   -351.58756     801.6751    450.08755    1242.4552   -351.58756            0   -8.5170899            0            0            0            0            0            0 
10323000     737.1328    63904.129    499.11588   -350.86698    760.25028     409.3833    1096.3735   -350.86698            0    -8.194925            0            0            0            0            0            0 
10324000    834.31539    63314.697    531.25537   -352.84004    809.20496    456.36492     1226.755   -352.84004            0   -8.2712161            0            0            0            0            0            0 
10325000    800.18242    63383.372    528.37098   -352.48467    804.81148     452.3268    1192.0006   -352.48467            0   -8.2622544            0            0            0            0            0            0 
10326000    960.30084    60408.874    542.24505   -359.30508    825.94437    466.63929    1312.6657   -359.30508            0   -8.6690831            0            0            0            0            0            0 
10327000    933.03797    62990.084    584.27281   -344.55699    889.96081    545.40382    1402.5352   -344.55699            0    -8.313841            0            0            0            0            0            0 
10328000    965.04928    61899.128    528.38132   -337.79082    804.82723    467.03641    1338.2205   -337.79082            0   -8.4603703            0            0            0            0            0            0 
10329000    1014.6013    60824.063    532.93418   -349.23196    811.76211    462.53015    1362.5389   -349.23196            0   -8.6099073            0            0            0            0            0            0 
10330000    852.78262    64558.112    563.15562   -338.33478    857.79522    519.46044    1322.3671   -338.33478            0   -8.1119092            0            0            0            0            0            0 
10331000    929.96373    61732.462    526.95421   -354.14299    802.65346    448.51047    1285.7611   -354.14299            0   -8.4832117            0            0            0            0            0            0 
10332000    964.27659    60607.838    543.71447   -354.53621    828.18258    473.64637    1325.9735   -354.53621            0   -8.6406241            0            0            0            0            0            0 
10333000    971.11873    61064.059    534.71163   -352.81488    814.46951    461.65463    1326.4909   -352.81488            0   -8.5760684            0            0            0            0            0            0 
10334000    975.36639    62676.224    594.62544    -349.1722    905.72987    556.55767    1448.1093    -349.1722            0   -8.3554738            0            0            0            0            0            0 
10335000    948.62518    62929.308    556.61004   -334.46285    847.82504    513.36219    1383.9719   -334.46285            0   -8.3218704            0            0            0            0            0            0 
10336000    862.38011    60062.952    527.72587   -372.81023    803.82885    431.01862    1186.4261   -372.81023            0   -8.7190111            0            0            0            0            0            0 
10337000    1052.0488    64167.507    574.18455    -309.3774    874.59443    565.21703    1549.7425    -309.3774            0   -8.1612886            0            0            0            0            0            0 
10338000    882.17316    61479.098    569.15022   -362.41797    866.92617    504.50819    1295.4731   -362.41797            0   -8.5181722            0            0            0            0            0            0 
10339000    962.56782    60174.913     546.9835   -362.19794    833.16195    470.96401    1315.7033   -362.19794            0   -8.7027885            0            0            0            0            0            0 
10340000    758.65568    63977.003    515.59906   -354.17148    785.35736    431.18587    1139.0412   -354.17148            0   -8.1855905            0            0            0            0            0            0 
10341000    1105.6676    58677.886      527.764   -359.31792    803.88693    444.56901    1390.7515   -359.31792            0   -8.9248195            0            0            0            0            0            0 
10342000    963.46686    62970.442    530.53547   -329.50194    808.10841    478.60646    1363.4152   -329.50194            0   -8.3164343            0            0            0            0            0            0 
10343000    873.06983    61788.325    549.33744   -350.73843    836.74746    486.00903    1272.7491   -350.73843            0    -8.475542            0            0            0            0            0            0 
10344000    1036.2403    62123.658    541.13936   -327.18459    824.26019    497.07559    1435.9195   -327.18459            0   -8.4297925            0            0            0            0            0            0 
10345000    843.69383    63996.945    544.43192   -348.48637     829.2754    480.78903    1268.2336   -348.48637            0   -8.1830398            0            0            0            0            0            0 
10346000    863.12891    60792.138    520.09876   -364.26302    792.21128    427.94826    1193.1906   -364.26302            0   -8.6144288            0            0            0            0            0            0 
10347000    674.66254    64836.838    519.00245   -349.68877    790.54139    440.85262    1078.7992   -349.68877            0    -8.077037            0            0            0            0            0            0 
10348000    1173.3973    58816.052     535.1697    -338.5869    815.16724    476.58035    1483.0874    -338.5869            0   -8.9038541            0            0            0            0            0            0 
10349000    989.95346     62331.61    565.25571   -331.98664    860.99407    529.00743    1428.9173   -331.98664            0   -8.4016689            0            0            0            0            0            0 
10350000    924.42674    63157.054    546.34411    -339.3331    832.18804    492.85494    1344.3267    -339.3331            0   -8.2918615            0            0            0            0            0            0 
10351000    954.87713    59807.036    539.38438   -364.44889    821.58702    457.13813    1290.0051   -364.44889            0   -8.7563201            0            0            0            0            0            0 
10352000    851.69376    64202.944    533.04888   -334.89299    811.93682    477.04383    1274.5137   -334.89299            0   -8.1567839            0            0            0            0            0            0 
10353000    724.72429    65253.075    527.74177   -350.67608    803.85306    453.17698    1142.8603   -350.67608            0   -8.0255151            0            0            0            0            0            0 
[...]
14939000    853.50843    64759.413    522.10218   -332.41696    795.26288    462.84592    1268.9416   -332.41696            0   -8.0866938            0            0            0            0            0            0 
14940000    1026.3437    62327.312    569.11262   -333.42744    866.86889    533.44144    1466.3673   -333.42744            0   -8.4022481            0            0            0            0            0            0 
14941000    828.40974    63139.221    554.37127   -350.47398    844.41496    493.94098    1256.7579   -350.47398            0   -8.2942035            0            0            0            0            0            0 
14942000    868.81562    62513.563    539.69879   -346.22561    822.06593    475.84032    1267.9362   -346.22561            0   -8.3772148            0            0            0            0            0            0 
14943000    971.61336    61669.604    524.34375   -339.30579    798.67723    459.37144    1333.2288   -339.30579            0   -8.4918584            0            0            0            0            0            0 
14944000    885.58477    60998.505    508.90534   -350.38118    775.16153    424.78034    1212.5971   -350.38118            0   -8.5852849            0            0            0            0            0            0 
14945000    774.31091    63954.771    520.41357   -344.94341    792.69079    447.74738    1169.9586   -344.94341            0   -8.1884359            0            0            0            0            0            0 
14946000    1123.9555    60709.269    566.20448   -336.91745    862.43922    525.52178    1520.6522   -336.91745            0   -8.6261877            0            0            0            0            0            0 
14947000    759.63098    64858.401    519.83641   -341.75281    791.81166    450.05885    1168.5887   -341.75281            0   -8.0743518            0            0            0            0            0            0 
14948000     864.5051    60082.861     525.4853   -374.01913    800.41602    426.39689    1183.9168   -374.01913            0    -8.716122            0            0            0            0            0            0 
14949000    972.13546     65498.96    559.38466   -312.81732    852.05132      539.234     1467.852   -312.81732            0   -7.9953872            0            0            0            0            0            0 
14950000    897.44782    60897.024     538.9859   -365.67834    820.98005    455.30171    1252.3436   -365.67834            0   -8.5995917            0            0            0            0            0            0 
14951000    1061.9044    58957.675    533.75693   -353.73841    813.01532    459.27691    1372.3419   -353.73841            0    -8.882466            0            0            0            0            0            0 
14952000      764.236    63805.753    538.01951   -349.63239    819.50805    469.87566    1181.0289   -349.63239            0     -8.20756            0            0            0            0            0            0 
14953000    947.53759    60937.161    530.85675   -353.17903    808.59779    455.41876    1297.5011   -353.17903            0   -8.5939275            0            0            0            0            0            0 
14954000    793.24616    63942.936    515.59399    -342.4794    785.34964    442.87024    1182.6057    -342.4794            0   -8.1899515            0            0            0            0            0            0 
14955000    888.74617    60708.286    539.93071    -365.9096    822.41918    456.50958    1243.3771    -365.9096            0   -8.6263273            0            0            0            0            0            0 
14956000    918.30822    61270.278    537.86596   -352.63247    819.27417     466.6417     1287.209   -352.63247            0   -8.5472037            0            0            0            0            0            0 
14957000    1053.3852    61697.319    560.48001   -327.07541    853.71975    526.64434     1474.472   -327.07541            0   -8.4880438            0            0            0            0            0            0 
14958000     863.1576    62527.074    532.09481   -353.33281    810.48358    457.15078    1244.2584   -353.33281            0   -8.3754046            0            0            0            0            0            0 
14959000    873.10775    61744.851    526.82921   -348.51169    802.46305    453.95137    1240.1721   -348.51169            0   -8.4815095            0            0            0            0            0            0 
14960000    806.72426     62209.56    546.24587   -360.78562    832.03839    471.25277    1203.1635   -360.78562            0   -8.4181522            0            0            0            0            0            0 
14961000     833.4049    63540.838    537.17755   -343.36982    818.22559    474.85577    1247.1537   -343.36982            0   -8.2417791            0            0            0            0            0            0 
14962000    924.58941    61875.888    550.44104   -356.93493    838.42845    481.49352    1315.8396   -356.93493            0    -8.463548            0            0            0            0            0            0 
14963000    958.95376    61052.991    570.90357   -362.73311    869.59686    506.86374    1360.7116   -362.73311            0   -8.5776231            0            0            0            0            0            0 
14964000    790.88475    65556.392    514.25654   -330.09127    783.31244    453.22117    1209.3645   -330.09127            0   -7.9883827            0            0            0            0            0            0 
14965000     1043.738    60058.947    575.99537   -352.90729    877.35265    524.44536    1438.6535   -352.90729            0   -8.7195926            0            0            0            0            0            0 
14966000    829.22674    62975.372    574.36718    -361.0759    874.87261    513.79671    1275.3844    -361.0759            0   -8.3157833            0            0            0            0            0            0 
14967000    1080.4455    62461.027    565.40091   -331.58862    861.21523    529.62661    1513.8368   -331.58862            0   -8.3842609            0            0            0            0            0            0 
14968000    864.90302    61693.863    542.32048   -355.98551    826.05926    470.07376    1248.2631   -355.98551            0   -8.4885193            0            0            0            0            0            0 
14969000    862.53885     63576.24    551.43169   -339.97324    839.93741    499.96417    1299.7052   -339.97324            0   -8.2371896            0            0            0            0            0            0 
14970000    952.43047    58497.275    543.41549   -381.59252    827.72717    446.13465    1258.6748   -381.59252            0   -8.9523751            0            0            0            0            0            0 
14971000      762.665    63139.755    520.42246    -348.4862    792.70433    444.21814    1146.5019    -348.4862            0   -8.2941333            0            0            0            0            0            0 
14972000    1001.2507    61823.362    549.82868   -336.76552    837.49571    500.73019    1403.4882   -336.76552            0   -8.4707387            0            0            0            0            0            0 
14973000     831.5313    63129.744    557.46017   -361.42821    849.11995    487.69174    1253.2681   -361.42821            0   -8.2954486            0            0            0            0            0            0 
14974000    983.51641    60407.284    518.67034   -358.31528    790.03552    431.72024    1298.1768   -358.31528            0   -8.6693112            0            0            0            0            0            0 
14975000    796.82194    63698.762    514.50143   -353.85078    783.68545    429.83467    1170.0672   -353.85078            0   -8.2213457            0            0            0            0            0            0 
14976000    920.97773    59785.131    543.28657   -368.85766     827.5308    458.67314    1261.6781   -368.85766            0   -8.7595283            0            0            0            0            0            0 
14977000    963.28924    63844.493    512.89305   -320.22908    781.23558     461.0065    1357.9313   -320.22908            0   -8.2025797            0            0            0            0            0            0 
14978000    1014.5277    60222.147    582.26813   -353.94164    886.90729    532.96565    1424.0033   -353.94164            0   -8.6959626            0            0            0            0            0            0 
14979000    916.78719    65317.539    561.98198   -334.38506    856.00755     521.6225    1394.9442   -334.38506            0   -8.0175946            0            0            0            0            0            0 
14980000    871.98504    63138.007    523.01248   -344.41472    796.64944    452.23473    1255.1612   -344.41472            0   -8.2943629            0            0            0            0            0            0 
14981000    918.80392    60320.085    536.15788   -364.40883    816.67243     452.2636    1260.5414   -364.40883            0   -8.6818436            0            0            0            0            0            0 
14982000    807.31082    64649.966    535.21271   -344.31876    815.23276      470.914    1232.0898   -344.31876            0   -8.1003839            0            0            0            0            0            0 
14983000    800.29032    62333.311    553.97811   -367.27028     843.8161    476.54581    1204.0637   -367.27028            0   -8.4014396            0            0            0            0            0            0 
14984000    950.68261    61461.849     530.4042   -349.38977    807.90846    458.51869    1310.6707   -349.38977            0   -8.5205628            0            0            0            0            0            0 
14985000    797.77048    62619.518    504.67719   -353.67989    768.72123    415.04134    1143.5984   -353.67989            0   -8.3630401            0            0            0            0            0            0 
14986000    952.18657    60319.552    518.58805   -363.24464    789.91018    426.66554    1264.3029   -363.24464            0   -8.6819203            0            0            0            0            0            0 
14987000     911.1312    61070.606    550.74689   -361.86279    838.89433    477.03154    1288.5325   -361.86279            0   -8.5751489            0            0            0            0            0            0 
14988000    945.04617     60122.52    556.96864   -369.37116    848.37125     479.0001    1307.6405   -369.37116            0   -8.7103725            0            0            0            0            0            0 
14989000    867.18596    64001.551    515.56484   -338.00552    785.30524    447.29972    1256.7285   -338.00552            0   -8.1824509            0            0            0            0            0            0 
14990000    1043.7321    58002.791    554.33126    -379.3011    844.35402    465.05291    1347.9576    -379.3011            0   -9.0286957            0            0            0            0            0            0 
14991000     955.8507    65200.016    558.55631   -315.81662    850.78958    534.97296    1443.8678   -315.81662            0   -8.0320462            0            0            0            0            0            0 
14992000    984.47949    62622.729    534.26568   -327.06036    813.79024    486.72988    1385.8434   -327.06036            0   -8.3626114            0            0            0            0            0            0 
14993000    863.44868    64054.009    528.75911   -327.24337    805.40267     478.1593    1284.7603   -327.24337            0   -8.1757498            0            0            0            0            0            0 
14994000    842.13982    64531.143    548.59116   -336.59071    835.61074    499.02003    1291.5751   -336.59071            0   -8.1152994            0            0            0            0            0            0 
14995000    1024.5253    58773.852     545.6382   -361.11666     831.1128    469.99614    1348.1745   -361.11666            0    -8.910247            0            0            0            0            0            0 
14996000     843.1412    62965.104    563.38116   -349.70044    858.13876    508.43832    1282.6792   -349.70044            0   -8.3171394            0            0            0            0            0            0 
14997000    1018.6485    59502.109    545.46097   -361.46029    830.84285    469.38255    1353.3425   -361.46029            0   -8.8011931            0            0            0            0            0            0 
14998000    919.61154    64306.738    571.38061   -338.55776    870.32348    531.76572    1394.2214   -338.55776            0   -8.1436186            0            0            0            0            0            0 
14999000    866.63654    62110.354    520.46678   -358.07053    792.77184    434.70131    1219.7144   -358.07053            0   -8.4315981            0            0            0            0            0            0 
15000000    822.10821    64409.504    509.08436   -342.41944    775.43421    433.01478    1205.2593   -342.41944            0   -8.1306254            0            0            0            0            0            0 
Loop time of 1377.64 on 8 procs for 5000000 steps with 512 atoms

Pair  time (%) = 751.244 (54.531)
Bond  time (%) = 0.461237 (0.0334801)
Neigh time (%) = 37.185 (2.69917)
Comm  time (%) = 428.563 (31.1084)
Outpt time (%) = 0.23291 (0.0169064)
Other time (%) = 159.959 (11.611)

Nlocal:    64 ave 76 max 58 min
Histogram: 3 0 2 0 1 0 1 0 0 1
Nghost:    1182.75 ave 1238 max 1145 min
Histogram: 2 1 1 0 0 2 0 1 0 1
Neighs:    5144.88 ave 6402 max 4401 min
Histogram: 2 1 1 1 1 0 1 0 0 1

Total # of neighbors = 41159
Ave neighs/atom = 80.3887
Ave special neighs/atom = 0
Neighbor list builds = 107108
Dangerous builds = 0

Averages
Group Pressure(MPa) Volume(m3) Temperature(K) PE(J) KE(J) ET(J) ET^2(J) H(J) H^2(J^2) V^2(m6) V*H(m3*J) Hconf(J) Uext*Hconf(J^2) V*Hconf(m3*J) Uext(J)
Block1 90.173957898513663167 6.2342964328144545639e-26 540.64027823184278532 -2.4351887620424189871e-18 5.7214266575281938452e-18 3.2862378954857756285e-18 1.0852219267478574284e-35 8.9002916609762804355e-18 7.9612406331421911397e-35 3.8895333110375346834e-51 5.5476423788832145489e-43 3.1788650034480904421e-18 -7.7084138403715962554e-36 1.9806788287896869808e-43 -2.4351887620424189871e-18
Block2 89.60062541825229232 6.2412516444181004828e-26 540.71824170731281356 -2.4338835114738745651e-18 5.7222517205596247676e-18 3.2883682090857413432e-18 1.0868109849214134714e-35 8.873439270543553255e-18 7.9101552733449382114e-35 3.8982142627754736798e-51 5.5374152796358083927e-43 3.1511875499839342652e-18 -7.6397648331917018111e-36 1.9659957052489244511e-43 -2.4338835114738745651e-18
Block3 89.897747361381149744 6.2418067940130517996e-26 540.58014563320409707 -2.4318835324274037294e-18 5.7207902930790517013e-18 3.2889067606516514385e-18 1.0865808750611612483e-35 8.89237462154837688e-18 7.9449179071342277632e-35 3.8989401955082640761e-51 5.5491213805944195846e-43 3.1715843284693051491e-18 -7.6811586156049218593e-36 1.9784440779378126062e-43 -2.4318835324274037294e-18
Block4 90.209516376757548528 6.2359968493655600648e-26 541.06282494907145519 -2.433646655436590704e-18 5.7258983370336849433e-18 3.2922516815970838393e-18 1.0889635671219974025e-35 8.9103563190086184515e-18 7.9745157540141933507e-35 3.8915282276269255569e-51 5.5552866400649530844e-43 3.1844579819749458341e-18 -7.7213111512221393651e-36 1.9846858063316895845e-43 -2.433646655436590704e-18
Block5 89.838072366101812349 6.2339739176924979624e-26 540.40772331727873734 -2.4373162592925121087e-18 5.7189656017373125297e-18 3.2816493424448015766e-18 1.0820135702176552105e-35 8.8741298230346979501e-18 7.9114125036683459701e-35 3.889322010488684374e-51 5.5310600776715387208e-43 3.1551642212973761759e-18 -7.659226885220739506e-36 1.9658366934666765865e-43 -2.4373162592925121087e-18
Ave_blocks 89.943983884201287538 6.2374651276607329747e-26 540.68184276774195496 -2.4343837441345600959e-18 5.7218665219875723248e-18 3.2874827778530106882e-18 1.0859181848140170057e-35 8.8901183390223038537e-18 7.9404484142607788594e-35 3.8935076014873765928e-51 5.544105151369986707e-43 3.1682518170347307585e-18 -7.6819750651222192248e-36 1.9751282223549581215e-43 -2.4343837441345600959e-18
Stdev_blocks 0.22567483409080837942 3.3933108048598540721e-29 0.21618681561670136104 1.8051199421470206132e-21 2.2878373285921578609e-21 3.4966515173507113217e-21 2.2909122304445058445e-38 1.4505082510264986181e-20 2.5975507159290186359e-37 4.2165819272042836999e-54 8.6905529762581710276e-46 1.3029654734804515745e-20 3.0153561861312023619e-38 7.783147426146347123e-46 1.8051199421470206132e-21






Properties
Group rho(kg/m3) Cp(J/K) Cp_conf(J/K) Cp_id(J/K) Cp2(J/K) kT(1/Pa) aP(1/K) aP2(1/K) Cv(J/K) uJT(K/Pa) sos(m/s) Cv2(J/K) uJT2(K/Pa) sos2(m/s) CvNVT(J/K)
Block1 218.77744036022465934 9.8429499305286747014e-20 -1.4626139546404904684e-21 4.1623803815600245234e-20 4.0161189860959752509e-20 6.206326749575051066e-09 -0.00042262843981937122349 -0.00044511371336713843752 9.7459483865249112624e-20 -7.7809707583125874859e-07 862.44616967601086799 3.9085212437108175985e-20 -1.9258785569228112548e-06 869.91828710364586641 1.3098609220121220596e-20
Block2 218.53363615579550583 9.0080823595179380582e-20 -1.3140945408733423015e-21 4.1627789591892276686e-20 4.0313695051018931375e-20 6.2069814195811373706e-09 -0.00028636363337370014919 -0.00029361866326503511864 8.9634964123005439629e-20 -8.0013253604601405218e-07 860.75208020702564227 3.9844957675921591062e-20 -1.7939669754184779525e-06 863.65491632451846726 1.356170226283176396e-20
Block3 218.5141996587043991 9.2908874052353793544e-20 -1.8642070938204015645e-21 4.1620729567647588344e-20 3.9756522473827189036e-20 6.2787150338179075325e-09 -0.00052695590406860259945 -0.00047554529994194933091 9.1416601367891155903e-20 -8.6319631086020738866e-07 860.67828258371355332 3.8541222671424291334e-20 -1.97361080580667962e-06 867.09410264524774448 1.2120344482890975547e-20
Block4 218.71778465648020529 8.6769445945745279458e-20 -2.5561785983312590736e-21 4.1645405043868986936e-20 3.9089226445537730119e-20 5.9302699109339909787e-09 -0.00047957122566604783957 -0.00045276481324795159666 8.546091090354595076e-20 -9.0516906789467405264e-07 884.74959813309703804 3.7922888355986185036e-20 -1.9861368336408613381e-06 891.45321364631354299 1.2547403009216003019e-20
Block5 218.78875882799349029 9.0262913681826346365e-20 -1.8200686956331439521e-21 4.1611914320875798247e-20 3.979184562524265279e-20 6.6195740545723001569e-09 -0.00041745703494531599372 -0.00043143891673686645717 8.9376002661457178273e-20 -8.4645392624100598011e-07 835.05808634970310322 3.8844529092622416924e-20 -1.9319141990330851377e-06 841.01663534856629667 1.2627137043115619684e-20
Ave_blocks 218.66636393183966902 9.1690311316078319022e-20 -1.8034325766597276977e-21 4.1625928467976977886e-20 3.9822495891317253573e-20 6.2483734336960780827e-09 -0.00042659524757460761529 -0.00041969628131178820987 9.0669592584229757808e-20 -8.3860978337463200208e-07 860.73684338991006371 3.8847762046612536883e-20 -1.922301474164383103e-06 866.62743101365833809 1.279103920363511626e-20
Stdev_blocks 0.11893965110276975838 3.8921557167992600081e-21 4.303965431820515461e-22 1.1052057021529244006e-23 4.2402033684798658801e-22 2.2062710046980190566e-10 8.079958383787346995e-05 6.4640763915230380261e-05 3.9124120826593707538e-21 4.5251414570473717716e-08 15.741260504593656222 6.3247924791327709663e-22 6.8238616928972283943e-08 16.075544766612622993 4.948888335251959723e-22






