LAMMPS (28 Oct 2012)
Scanning data file ...
Reading data file ...
  orthogonal box = (0 0 0) to (100 100 100)
  2 by 2 by 2 MPI processor grid
  512 atoms
Finding 1-2 1-3 1-4 neighbors ...
  0 = max # of 1-2 neighbors
  0 = max # of 1-3 neighbors
  0 = max # of 1-4 neighbors
  1 = max # of special neighbors
WARNING: Resetting reneighboring criteria during minimization (min.cpp:173)
Setting up minimization ...
Memory usage per processor = 4.05499 Mbytes
Step Temp E_pair E_mol TotEng Press 
       0       380.15    1409.7233            0    1988.7655     438.9858 
     701       380.15   -217.27527            0    361.76691    26.240902 
Loop time of 0.0547138 on 8 procs for 701 steps with 512 atoms

Minimization stats:
  Stopping criterion = energy tolerance
  Energy initial, next-to-last, final = 
         1409.72334813     -217.256630745     -217.275265106
  Force two-norm initial, final = 5034.49 0.337455
  Force max component initial, final = 2457.89 0.147661
  Final line search alpha, max atom move = 0.254892 0.0376377
  Iterations, force evaluations = 701 710

Pair  time (%) = 0.00895578 (16.3684)
Bond  time (%) = 5.48065e-05 (0.100169)
Neigh time (%) = 0.0031423 (5.74315)
Comm  time (%) = 0.0217313 (39.718)
Outpt time (%) = 0 (0)
Other time (%) = 0.0208297 (38.0703)

Nlocal:    64 ave 74 max 52 min
Histogram: 1 0 0 1 1 2 0 2 0 1
Nghost:    235.125 ave 266 max 224 min
Histogram: 4 0 2 0 0 1 0 0 0 1
Neighs:    316.25 ave 371 max 226 min
Histogram: 1 0 0 1 1 1 0 1 0 3

Total # of neighbors = 2530
Ave neighs/atom = 4.94141
Ave special neighs/atom = 0
Neighbor list builds = 60
Dangerous builds = 0
Setting up run ...
Memory usage per processor = 3.36354 Mbytes
Step Temp E_pair E_mol TotEng Press Volume 
     701       380.15   -217.27527            0    361.76691    26.240902      1000000 
 5000701    373.87894   -506.49908            0    62.991048    878.82446    47400.672 
Loop time of 1681.74 on 8 procs for 5000000 steps with 512 atoms

Pair  time (%) = 963.738 (57.3061)
Bond  time (%) = 0.475706 (0.0282866)
Neigh time (%) = 36.4736 (2.1688)
Comm  time (%) = 517.228 (30.7556)
Outpt time (%) = 5.19753e-05 (3.09057e-06)
Other time (%) = 163.822 (9.74124)

Nlocal:    64 ave 72 max 59 min
Histogram: 2 0 1 2 1 0 1 0 0 1
Nghost:    1441.38 ave 1487 max 1377 min
Histogram: 1 0 1 0 1 0 2 1 0 2
Neighs:    6995.12 ave 8120 max 6208 min
Histogram: 2 1 0 1 1 0 2 0 0 1

Total # of neighbors = 55961
Ave neighs/atom = 109.299
Ave special neighs/atom = 0
Neighbor list builds = 89803
Dangerous builds = 15
Setting up run ...
Memory usage per processor = 3.96738 Mbytes
Step Press Volume Temp PotEng KinEng TotEng Enthalpy E_vdwl E_coul E_tail E_long E_bond E_angle E_dihed E_impro E_mol 
10000000    878.82446    47400.672    373.87894   -506.49908    569.49013    62.991048    670.51377   -506.49908            0   -11.048146            0            0            0            0            0            0 
10001000    893.69742    47911.251    379.73005   -494.38145    578.40251    84.021062    708.48003   -494.38145            0   -10.930408            0            0            0            0            0            0 
10002000     671.3336    48030.621    383.01486    -517.1308    583.40591     66.27511    536.52908    -517.1308            0   -10.903243            0            0            0            0            0            0 
10003000    890.62951    47038.746    355.56504    -498.1303    541.59451    43.464213    654.44662    -498.1303            0   -11.133153            0            0            0            0            0            0 
10004000    850.37996    47089.197    371.84167   -511.28568    566.38697    55.101292    639.09772   -511.28568            0   -11.121225            0            0            0            0            0            0 
10005000     995.1213    47851.704    401.71378   -487.84923    611.88799    124.03876    818.50209   -487.84923            0    -10.94401            0            0            0            0            0            0 
10006000    1055.0313    47425.408    427.31658   -490.42202    650.88603    160.46401    890.17738   -490.42202            0   -11.042384            0            0            0            0            0            0 
10007000    857.26904    47410.774     394.8238   -515.43965    601.39322    85.953573    678.70155   -515.43965            0   -11.045792            0            0            0            0            0            0 
10008000    842.38673    46042.984    389.42448   -523.38071      593.169    69.788291     635.4423   -523.38071            0   -11.373927            0            0            0            0            0            0 
10009000    747.76507    49425.061    389.83383   -496.36397    593.79253    97.428555    636.42794   -496.36397            0   -10.595628            0            0            0            0            0            0 
10010000    918.02018    48707.631    398.38739   -487.01591    606.82126    119.80535    771.92175   -487.01591            0   -10.751694            0            0            0            0            0            0 
10011000    927.45446    48884.676      390.141   -481.46933    594.26041    112.79108    774.00383   -481.46933            0   -10.712755            0            0            0            0            0            0 
10012000    913.67182    46291.678    362.45936   -511.97123     552.0959    40.124673    656.95972   -511.97123            0   -11.312823            0            0            0            0            0            0 
10013000    849.48295    49197.598    403.76986   -489.17815     615.0198    125.84164    735.34269   -489.17815            0   -10.644616            0            0            0            0            0            0 
10014000    919.03072    47246.793    371.33651   -498.21167    565.61752    67.405848     700.6603   -498.21167            0   -11.084129            0            0            0            0            0            0 
10015000    984.04376    49195.472     396.3565   -468.71174    603.72782    135.01609    841.03354   -468.71174            0   -10.645076            0            0            0            0            0            0 
10016000    821.49589     48699.25    363.33753    -495.7722    553.43352    57.661324    641.11121    -495.7722            0   -10.753544            0            0            0            0            0            0 
10017000    1038.5467     47229.74    369.47469   -489.00482    562.78161    73.776792    789.12499   -489.00482            0   -11.088131            0            0            0            0            0            0 
10018000    907.75647    47410.359    374.04165    -500.8259    569.73797    68.912068    696.56344    -500.8259            0   -11.045889            0            0            0            0            0            0 
10019000     947.4057    45984.636    385.60714    -521.1546    587.35446    66.199859    701.56683    -521.1546            0   -11.388359            0            0            0            0            0            0 
10020000    819.79665    48495.177    367.69272   -488.08595    560.06732    71.981371    651.78453   -488.08595            0   -10.798796            0            0            0            0            0            0 
10021000     824.6375    49873.649    377.71038   -472.02926    575.32616    103.29689    703.10193   -472.02926            0   -10.500325            0            0            0            0            0            0 
10022000    972.87826    46402.055    389.04001   -511.89688    592.58339    80.686511    739.05889   -511.89688            0   -11.285913            0            0            0            0            0            0 
10023000    934.89642    47749.538    394.97988    -497.3088    601.63096    104.32216    755.36349    -497.3088            0   -10.967426            0            0            0            0            0            0 
10024000    922.97264    47620.973    371.25803   -492.10665    565.49798    73.391335    714.39864   -492.10665            0   -10.997036            0            0            0            0            0            0 
10025000    929.74391      46796.5    387.97028   -512.65955    590.95398    78.294434    712.82508   -512.65955            0   -11.190785            0            0            0            0            0            0 
10026000    953.93999    48247.683    403.53954   -485.84005    614.66898    128.82894    800.06209   -485.84005            0   -10.854191            0            0            0            0            0            0 
10027000    856.28769    47126.194    369.55157   -506.01908    562.89871    56.879635     645.3952   -506.01908            0   -11.112494            0            0            0            0            0            0 
10028000    726.15906    49297.935    399.15156   -491.13618    607.98524    116.84906    638.92824   -491.13618            0   -10.622951            0            0            0            0            0            0 
10029000    879.70026    47158.455    364.96357   -500.83656     555.9103    55.073743    660.09437   -500.83656            0   -11.104892            0            0            0            0            0            0 
10030000    860.68009    48676.936    391.97212   -483.49906    597.04955    113.55049    724.55002   -483.49906            0   -10.758474            0            0            0            0            0            0 
10031000    906.25851    47187.082    381.62571   -504.30397    581.28997    76.986001    700.65062   -504.30397            0   -11.098155            0            0            0            0            0            0 
10032000    827.72613    47008.183    375.35516   -514.38213     571.7387    57.356578    624.81758   -514.38213            0   -11.140391            0            0            0            0            0            0 
10033000    839.14057    48278.061    387.07184   -492.78663    589.58547    96.798845    687.62597   -492.78663            0   -10.847361            0            0            0            0            0            0 
10034000    884.22862    49221.836    381.13081    -467.2675    580.53614    113.26864    748.01215    -467.2675            0   -10.639374            0            0            0            0            0            0 
10035000    912.94411     47640.09    413.66519   -505.51846    630.09231    124.57385    758.87085   -505.51846            0   -10.992623            0            0            0            0            0            0 
10036000    901.67763     48164.63    394.96205   -486.82902     601.6038    114.77478    748.14175   -486.82902            0   -10.872907            0            0            0            0            0            0 
10037000     709.2423    47912.114    373.73866   -509.83452    569.27647    59.441947    555.02432   -509.83452            0   -10.930212            0            0            0            0            0            0 
10038000     831.3545    48935.832    383.41642   -488.58389    584.01756    95.433671    688.75385   -488.58389            0   -10.701556            0            0            0            0            0            0 
10039000    1077.0318    46530.555    388.97347   -495.25404    592.48203    97.227984    828.10222   -495.25404            0   -11.254745            0            0            0            0            0            0 
10040000    874.01572     47914.77    366.86155   -497.42262    558.80129    61.378673    672.13017   -497.42262            0   -10.929606            0            0            0            0            0            0 
10041000    793.49039    47721.535    396.54433   -518.57261    604.01391    85.441303    637.68653   -518.57261            0   -10.973862            0            0            0            0            0            0 
10042000    971.54066    48197.015    375.41199   -478.11441    571.82527    93.710864    776.61071   -478.11441            0   -10.865601            0            0            0            0            0            0 
10043000    726.15911    48254.766    379.76072   -510.21442    578.44923    68.234811    579.26657   -510.21442            0   -10.852597            0            0            0            0            0            0 
10044000    964.80957    46173.831    359.22653   -510.20564    547.17167     36.96603    686.66682   -510.20564            0   -11.341696            0            0            0            0            0            0 
10045000    866.73452    47197.219    369.81768   -499.59335    563.30405    63.710707    660.30404   -499.59335            0   -11.095771            0            0            0            0            0            0 
10046000    949.74287    48184.854    378.03405   -480.17719    575.81917    95.641985    763.05163   -480.17719            0   -10.868344            0            0            0            0            0            0 
10047000    978.13395     44862.49    374.98193   -534.83906     571.1702    36.331138    676.29816   -534.83906            0   -11.673216            0            0            0            0            0            0 
10048000    881.53443    47556.432    386.78503   -507.10289    589.14861    82.045722    693.44431   -507.10289            0    -11.01196            0            0            0            0            0            0 
10049000    963.73928    48437.134    372.14176   -480.26141    566.84407    86.582665    767.37379   -480.26141            0   -10.811737            0            0            0            0            0            0 
10050000    761.38626     49115.77    364.35825   -484.54517    554.98828    70.443116    615.82647   -484.54517            0    -10.66235            0            0            0            0            0            0 
10051000    788.37347    46607.441    386.24147   -524.50314    588.32067     63.81753     599.6921   -524.50314            0   -11.236179            0            0            0            0            0            0 
10052000    873.50827     48225.98    386.50901   -493.62993    588.72818     95.09825    709.45972   -493.62993            0   -10.859075            0            0            0            0            0            0 
10053000    804.90856    48616.936    386.10355   -495.44744    588.11058    92.663141    663.36596   -495.44744            0   -10.771751            0            0            0            0            0            0 
10054000    1043.4412    47847.109    392.46295   -481.04058    597.79719    116.75661    844.87094   -481.04058            0   -10.945061            0            0            0            0            0            0 
10055000    942.56314    48523.244    404.91237   -489.79034    616.76007    126.96973     793.9856   -489.79034            0    -10.79255            0            0            0            0            0            0 
10056000     800.7489    48135.247    376.55549    -505.1522    573.56704    68.414841    630.54313    -505.1522            0   -10.879544            0            0            0            0            0            0 
10057000    1002.2864    46842.291    385.09001   -504.63908    586.56677    81.927699    766.63641   -504.63908            0   -11.179845            0            0            0            0            0            0 
10058000    745.71416    49998.653    381.35309   -478.35396    580.87471    102.52075    646.27991   -478.35396            0   -10.474073            0            0            0            0            0            0 
10059000    938.71127    47632.224    380.47157   -493.64485    579.53199    85.887136      737.979   -493.64485            0   -10.994438            0            0            0            0            0            0 
10060000    1025.9447    48320.844    411.90298   -483.77236    627.40813    143.63577    866.62923   -483.77236            0   -10.837756            0            0            0            0            0            0 
10061000    937.97442    49744.598     403.8564   -473.01804    615.15162    142.13358    822.60958   -473.01804            0   -10.527566            0            0            0            0            0            0 
10062000    876.71987    47689.289    375.18203   -496.87675    571.47499    74.598235    684.35635   -496.87675            0   -10.981282            0            0            0            0            0            0 
10063000    1023.9597    47777.882    375.46997   -482.09364    571.91358    89.819943    803.30627   -482.09364            0    -10.96092            0            0            0            0            0            0 
10064000    951.06996    47358.805    370.16277   -498.80759    563.82968    65.022096    721.90671   -498.80759            0   -11.057913            0            0            0            0            0            0 
10065000    788.13212    48774.225    354.88065   -491.22606    540.55206       49.326    609.94175   -491.22606            0   -10.737014            0            0            0            0            0            0 
10066000    806.62658    48680.013    388.24089   -491.92172    591.36618    99.444459    672.10743   -491.92172            0   -10.757794            0            0            0            0            0            0 
10067000    835.32547    47165.656    360.64857   -512.40609    549.33771     36.93162    611.52086   -512.40609            0   -11.103196            0            0            0            0            0            0 
10068000    821.74421    48161.941     376.4132   -493.48151    573.35031    79.868797    657.05577   -493.48151            0   -10.873514            0            0            0            0            0            0 
10069000    979.96497    48009.994    399.40934   -484.98219    608.37788    123.39569    809.54415   -484.98219            0   -10.907928            0            0            0            0            0            0 
10070000    835.37549    48829.539    385.74836   -484.88643    587.56956    102.68313    697.57802   -484.88643            0   -10.724851            0            0            0            0            0            0 
10071000    883.37403    47887.586    376.19591   -492.19538    573.01932    80.823944    697.76469   -492.19538            0    -10.93581            0            0            0            0            0            0 
10072000    972.56891    45907.733    376.86413   -517.39637    574.03716    56.640782    707.79239   -517.39637            0   -11.407436            0            0            0            0            0            0 
10073000     862.3604    48382.697    400.26567   -500.38995    609.68224    109.29229    717.78414   -500.38995            0   -10.823901            0            0            0            0            0            0 
10074000    913.97866     48618.72    403.82909   -485.47996    615.11001    129.63005    777.69043   -485.47996            0   -10.771356            0            0            0            0            0            0 
10075000    752.80278    48628.111    378.02998   -501.03137    575.81298     74.78161    608.66265   -501.03137            0   -10.769276            0            0            0            0            0            0 
10076000     759.0086    48204.611    360.24657   -497.92907     548.7254    50.796327    584.39062   -497.92907            0   -10.863889            0            0            0            0            0            0 
10077000    740.87359    49673.498    353.77011   -485.64526    538.86048    53.215219    589.93147   -485.64526            0   -10.542635            0            0            0            0            0            0 
10078000    938.62111    46752.816    363.57308   -512.89087     553.7923    40.901431     680.8926   -512.89087            0   -11.201241            0            0            0            0            0            0 
10079000    1011.0605    47753.617    383.72086   -480.70296    584.48129    103.77833    807.91882   -480.70296            0    -10.96649            0            0            0            0            0            0 
10080000    998.71106    48438.864    405.38368    -475.9694    617.47797    141.50857    847.02918    -475.9694            0   -10.811351            0            0            0            0            0            0 
10081000    1062.6155    47336.466    413.68169   -487.48737    630.11744    142.63007    876.21071   -487.48737            0   -11.063131            0            0            0            0            0            0 
10082000    834.16554     47681.45    366.19747   -500.90897    557.78977    56.880799    636.94704   -500.90897            0   -10.983088            0            0            0            0            0            0 
10083000    937.80995    46887.287    375.63193   -496.80813    572.16027    75.352149     716.6294   -496.80813            0   -11.169116            0            0            0            0            0            0 
10084000     996.2794    48670.725    381.27352   -469.33311    580.75352     111.4204    818.59207   -469.33311            0   -10.759847            0            0            0            0            0            0 
10085000    869.94505    49417.408    355.08473   -469.19201     540.8629    71.670892    698.64221   -469.19201            0   -10.597269            0            0            0            0            0            0 
10086000    858.44568    48361.611    405.25841   -503.46942    617.28715    113.81773    719.28332   -503.46942            0   -10.828621            0            0            0            0            0            0 
10087000    854.25628    47915.878    391.59148     -498.038    596.46977    98.431769    695.38941     -498.038            0   -10.929353            0            0            0            0            0            0 
10088000    820.95153    47431.203    368.38195   -506.12496    561.11716    54.992201    622.87348   -506.12496            0   -11.041034            0            0            0            0            0            0 
10089000    1022.2888    46019.352    357.97664   -502.07968    545.26785    43.188179    729.29226   -502.07968            0   -11.379768            0            0            0            0            0            0 
10090000    775.69329    49110.568    373.82118   -485.69274    569.40215    83.709415     639.2821   -485.69274            0    -10.66348            0            0            0            0            0            0 
10091000    958.84165    47430.754     382.5224   -490.77253    582.65581    91.883278    755.14176   -490.77253            0   -11.041139            0            0            0            0            0            0 
10092000    928.88964    48534.852    387.77498   -484.38088     590.6565    106.27562    763.77253   -484.38088            0   -10.789969            0            0            0            0            0            0 
10093000     1005.854    47988.936    392.14042   -485.14428     597.3059    112.16163    816.12806   -485.14428            0   -10.912714            0            0            0            0            0            0 
10094000    816.12756    47630.443    379.74113   -508.21379    578.41938    70.205593    637.12139   -508.21379            0   -10.994849            0            0            0            0            0            0 
10095000    839.77383    48636.981    370.20683   -488.60764     563.8968    75.289159    670.95794   -488.60764            0   -10.767312            0            0            0            0            0            0 
10096000    889.02177    46472.117    363.37856   -519.22185    553.49603    34.274175    636.80704   -519.22185            0   -11.268898            0            0            0            0            0            0 
10097000    1032.5621    48576.935    396.92971   -470.44945    604.60093    134.15149     865.6647   -470.44945            0   -10.780621            0            0            0            0            0            0 
10098000    944.84739    47644.923    386.83784   -499.54251    589.22905    89.686539    746.21596   -499.54251            0   -10.991508            0            0            0            0            0            0 
10099000    757.14541    50134.357    382.18769   -480.99949    582.14597    101.14648    654.73953   -480.99949            0   -10.445722            0            0            0            0            0            0 
10100000    983.42943    47133.247    367.66423   -495.12132    560.02393    64.902611    740.90222   -495.12132            0   -11.110831            0            0            0            0            0            0 
10101000    654.61964    48679.791     368.9169    -512.0258    561.93199    49.906191    514.65002    -512.0258            0   -10.757843            0            0            0            0            0            0 
10102000    763.53578    48882.555     377.5137   -489.03938    575.02658    85.987198    630.31333   -489.03938            0    -10.71322            0            0            0            0            0            0 
10103000     834.5691    47157.193    388.53694   -520.71635     591.8171    71.100759    645.06671   -520.71635            0   -11.105189            0            0            0            0            0            0 
10104000    758.04209     49395.79    377.45017   -477.71189     574.9298    97.217914    643.30153   -477.71189            0   -10.601906            0            0            0            0            0            0 
10105000    1028.9996    47150.343    381.29798   -486.20791    580.79077    94.582858    802.16355   -486.20791            0   -11.106802            0            0            0            0            0            0 
10106000    861.66182    49443.699    379.82514    -468.8982    578.54736    109.64915    730.98112    -468.8982            0   -10.591634            0            0            0            0            0            0 
10107000    872.71359    45925.042    380.38425   -525.31599    579.39898    54.082988    638.60004   -525.31599            0   -11.403137            0            0            0            0            0            0 
10108000    889.79683    49304.903    387.62278   -471.26925    590.42468    119.15542      758.974   -471.26925            0    -10.62145            0            0            0            0            0            0 
10109000    925.12363    47625.968    374.29008   -496.94606    570.11638     73.17032    715.73889   -496.94606            0   -10.995883            0            0            0            0            0            0 
10110000    931.94272    48860.898    375.72415    -482.1632    572.30075    90.137546    754.22695    -482.1632            0   -10.717968            0            0            0            0            0            0 
10111000    1116.4939    47630.995    394.15051   -475.72881    600.36766    124.63885    900.21043   -475.72881            0   -10.994722            0            0            0            0            0            0 
10112000    1108.2368    46324.982    395.48601   -502.60695     602.4019    99.794952    848.52233   -502.60695            0    -11.30469            0            0            0            0            0            0 
10113000    858.17767    47843.953    395.77197   -503.57374    602.83747    99.263728    698.06147   -503.57374            0   -10.945783            0            0            0            0            0            0 
10114000    883.46822    46404.127    359.50099   -515.91817    547.58973    31.671556    629.56451   -515.91817            0   -11.285409            0            0            0            0            0            0 
10115000    758.07913    48501.797    385.90331   -498.06065    587.80558    89.744923     625.9714   -498.06065            0   -10.797323            0            0            0            0            0            0 
10116000    1042.5046    46960.439    383.93127   -491.11603    584.80179    93.685759    807.66569   -491.11603            0   -11.151717            0            0            0            0            0            0 
10117000    812.77888    48058.175    374.66322   -504.33523    570.68474    66.349508     636.0093   -504.33523            0   -10.896992            0            0            0            0            0            0 
10118000    721.50718    48910.768    367.05317   -498.83692    559.09317    60.256252    574.91698   -498.83692            0    -10.70704            0            0            0            0            0            0 
10119000    874.79433    46909.013    373.11631   -512.42946     568.3285    55.899047     654.3632   -512.42946            0   -11.163943            0            0            0            0            0            0 
10120000    906.98759    48180.773    379.56082   -490.80706    578.14474    87.337681    724.64807   -490.80706            0   -10.869264            0            0            0            0            0            0 
10121000    999.08706    49998.614    394.69253   -453.78318    601.19327    147.41008    875.92288   -453.78318            0   -10.474081            0            0            0            0            0            0 
10122000    898.48221    47925.188     373.3275   -491.09126    568.65018    77.558925    705.54382   -491.09126            0    -10.92723            0            0            0            0            0            0 
10123000    855.04539    47526.461    360.37878    -497.3503    548.92677    51.576469    644.22953    -497.3503            0   -11.018905            0            0            0            0            0            0 
10124000    908.80802    48744.804    387.12834    -483.9094    589.67153    105.76214    751.82737    -483.9094            0   -10.743495            0            0            0            0            0            0 
10125000    830.28478    48629.858    387.79503   -495.73771    590.68704    94.949333    683.80107   -495.73771            0   -10.768889            0            0            0            0            0            0 
10126000    1006.7898    47005.907    355.86337   -486.04111    542.04893     56.00782    746.19539   -486.04111            0    -11.14093            0            0            0            0            0            0 
10127000    853.12668    50657.732    387.61564   -456.03909    590.41379    134.37469    764.65706   -456.03909            0   -10.337801            0            0            0            0            0            0 
10128000    988.33197    47052.158     408.9724   -503.16382    622.94427    119.78046    797.98123   -503.16382            0   -11.129979            0            0            0            0            0            0 
10129000    781.37159    50497.897    384.37482   -475.36157    585.47739    110.11582    685.56477   -475.36157            0   -10.370522            0            0            0            0            0            0 
10130000    955.74746    47528.235    360.64281   -488.45393    549.32894    60.875014     723.3519   -488.45393            0   -11.018493            0            0            0            0            0            0 
10131000    772.94543    46646.694     354.6687   -518.85441    540.22921    21.374803    547.20508   -518.85441            0   -11.226724            0            0            0            0            0            0 
10132000     904.1697    48010.143    406.02061   -500.54272    618.44813    117.90541    750.98577   -500.54272            0   -10.907894            0            0            0            0            0            0 
10133000    1206.4218    47448.678    398.89838   -471.41911    607.59959    136.18048    971.01266   -471.41911            0   -11.036968            0            0            0            0            0            0 
10134000    867.38845    48130.991    381.15728   -494.72659    580.57645    85.849858    694.70549   -494.72659            0   -10.880506            0            0            0            0            0            0 
10135000    709.79361    48111.013    367.42429   -509.56576    559.65846    50.092697    548.11923   -509.56576            0   -10.885024            0            0            0            0            0            0 
10136000    801.52341    49291.236    372.95853   -488.84948    568.08818    79.238697    655.42351   -488.84948            0   -10.624395            0            0            0            0            0            0 
10137000    1049.8495    45995.947    374.02449   -497.72082    569.71183     71.99101    776.23396   -497.72082            0   -11.385559            0            0            0            0            0            0 
10138000    772.86932    48597.027    393.95521   -500.97249    600.07019    99.097702    646.85939   -500.97249            0   -10.776164            0            0            0            0            0            0 
10139000    1198.1726     47149.69    399.77448   -470.07182    608.93407    138.86225     962.7615   -470.07182            0   -11.106956            0            0            0            0            0            0 
10140000     820.9373    48498.415      377.708   -495.98661    575.32254    79.335929    659.98458   -495.98661            0   -10.798076            0            0            0            0            0            0 
10141000    908.70523    48286.579    368.64957     -483.465    561.52478    78.059782    717.97929     -483.465            0   -10.845447            0            0            0            0            0            0 
10142000    776.75473    48065.315    381.28094   -503.41118    580.76482    77.353641    621.84576   -503.41118            0   -10.895373            0            0            0            0            0            0 
10143000    819.78098    46642.782    377.50103   -517.49682    575.00728    57.510455    615.15592   -517.49682            0   -11.227665            0            0            0            0            0            0 
10144000    859.65374    49878.944    400.21607   -479.32676     609.6067    130.27994    755.62064   -479.32676            0   -10.499211            0            0            0            0            0            0 
10145000    936.56338    45850.336    387.02666   -520.82891    589.51666    68.687752    694.94907   -520.82891            0   -11.421717            0            0            0            0            0            0 
10146000    814.88092    48639.142    365.45633   -488.52451    556.66086    68.136353    646.17376   -488.52451            0   -10.766834            0            0            0            0            0            0 
10147000    862.21431    50337.438    362.35461   -462.32648    551.93634    89.609855    722.57853   -462.32648            0    -10.40358            0            0            0            0            0            0 
10148000    916.38648    46610.561    368.59881   -507.91597    561.44747    53.531506      676.461   -507.91597            0   -11.235427            0            0            0            0            0            0 
10149000    770.44331    47047.565    348.41436   -517.49677    530.70265    13.205882    541.83823   -517.49677            0   -11.131066            0            0            0            0            0            0 
10150000    980.51271    48950.739    405.70213   -467.26406    617.96303    150.69897    850.68339   -467.26406            0   -10.698297            0            0            0            0            0            0 
10151000    1017.1506    47983.687    397.29336   -478.64863    605.15484    126.50621    838.30095   -478.64863            0   -10.913908            0            0            0            0            0            0 
10152000    761.37625    47771.056    406.36805   -515.92965    618.97736    103.04771    633.49233   -515.92965            0   -10.962486            0            0            0            0            0            0 
10153000    1018.7247    47586.167    395.13387   -488.15535    601.86551    113.71016    820.70047   -488.15535            0   -11.005079            0            0            0            0            0            0 
10154000     932.8721    47942.784    399.81008   -493.79781    608.98829    115.19048    767.45123   -493.79781            0   -10.923219            0            0            0            0            0            0 
10155000    802.19132    48566.678    375.44268   -492.73334    571.87201     79.13867    647.32692   -492.73334            0   -10.782898            0            0            0            0            0            0 
10156000     942.8441    48259.109    382.56159   -483.84526     582.7155    98.870232    762.45296   -483.84526            0   -10.851621            0            0            0            0            0            0 
10157000    910.32538    47881.483    384.96185   -489.79959    586.37155    96.571967     732.2543   -489.79959            0   -10.937204            0            0            0            0            0            0 
10158000    881.23537    48420.118    376.84521   -487.81747    574.00834    86.190869    708.48206   -487.81747            0   -10.815536            0            0            0            0            0            0 
10159000    944.46598    48327.085    370.79806    -476.3853    564.79735    88.412054    754.07259    -476.3853            0   -10.836357            0            0            0            0            0            0 
10160000     702.5838    49601.713    367.79199   -491.98387    560.21853    68.234658    576.47683   -491.98387            0   -10.557892            0            0            0            0            0            0 
10161000    888.28911    47221.244    369.98919   -505.55933    563.56529    58.005957    669.74705   -505.55933            0   -11.090126            0            0            0            0            0            0 
10162000    967.25941    48287.594    391.94586   -480.99689    597.00955    116.01266    797.18095   -480.99689            0   -10.845219            0            0            0            0            0            0 
10163000    925.04731    46807.567    385.69524   -516.35623    587.48866    71.132431    702.60705   -516.35623            0   -11.188138            0            0            0            0            0            0 
10164000    771.40062    49207.139    371.00916   -483.29568    565.11891    81.823227    635.40781   -483.29568            0   -10.642552            0            0            0            0            0            0 
10165000     831.4565    48517.064    383.71122   -494.49116     584.4666     89.97544    678.29047   -494.49116            0   -10.793925            0            0            0            0            0            0 
10166000    782.11958    48876.682    377.99056   -491.21998    575.75293    84.532948    642.04051   -491.21998            0   -10.714507            0            0            0            0            0            0 
10167000    938.28362    47389.349     372.1802   -497.35617    566.90262    69.546451    718.01776   -497.35617            0   -11.050786            0            0            0            0            0            0 
10168000    887.56979    49536.857    361.59998   -478.83794    550.78689    71.948953    713.16865   -478.83794            0   -10.571715            0            0            0            0            0            0 
10169000    727.24162    47190.477    350.10322   -519.46652    533.27511    13.808588    514.31424   -519.46652            0   -11.097356            0            0            0            0            0            0 
10170000    946.28501    49171.734    384.02122   -464.58941     584.9388    120.34939    798.94864   -464.58941            0   -10.650215            0            0            0            0            0            0 
10171000    791.89397    48163.188    374.27615   -500.60517    570.09516    69.489987    625.72478   -500.60517            0   -10.873233            0            0            0            0            0            0 
10172000    961.50049    46427.102    339.60661   -504.12076    517.28672     13.16596    664.18992   -504.12076            0   -11.279824            0            0            0            0            0            0 
10173000    895.42342    49577.546    386.31397   -468.51762     588.4311    119.91348    767.33833   -468.51762            0   -10.563039            0            0            0            0            0            0 
10174000     933.0807    47649.629    382.99024   -493.04225    583.36841    90.326159     738.7435   -493.04225            0   -10.990422            0            0            0            0            0            0 
10175000    878.32924    46116.548    362.36532   -526.06142    551.95266    25.891235    616.62258   -526.06142            0   -11.355784            0            0            0            0            0            0 
10176000    826.48548    48787.655    402.28402   -488.52981    612.75658    124.22677    712.28599   -488.52981            0   -10.734059            0            0            0            0            0            0 
10177000    949.02781    48399.699    370.46348   -468.52689    564.28772     95.76083    765.64157   -468.52689            0   -10.820099            0            0            0            0            0            0 
10178000    791.77592    49592.631    401.25868   -482.34881    611.19478    128.84598    701.50398   -482.34881            0   -10.559826            0            0            0            0            0            0 
10179000     933.2588    46085.183    380.83159   -517.35077    580.08037    62.729596    689.97762   -517.35077            0   -11.363512            0            0            0            0            0            0 
10180000    887.91602    48297.565    392.03635   -495.61021    597.14739    101.53719    726.95899   -495.61021            0    -10.84298            0            0            0            0            0            0 
10181000    953.69337      48282.8    400.59416   -484.35837    610.18259    125.82421    797.37228   -484.35837            0   -10.846296            0            0            0            0            0            0 
10182000    1105.7739    47874.934    375.24868    -463.3989    571.57652    108.17762    880.23646    -463.3989            0     -10.9387            0            0            0            0            0            0 
10183000    978.80018    47019.012    401.40888   -496.33768    611.42357    115.08588    786.27271   -496.33768            0   -11.137825            0            0            0            0            0            0 
10184000     839.2669    48336.697    377.19513   -488.99211    574.54134    85.549228      677.183   -488.99211            0   -10.834202            0            0            0            0            0            0 
10185000     758.2945    47986.358    391.76227   -511.32409    596.72992    85.405826    616.08444   -511.32409            0     -10.9133            0            0            0            0            0            0 
10186000    945.50357    47180.262     374.1328   -499.10838    569.87681    70.768422    721.34648   -499.10838            0   -11.099759            0            0            0            0            0            0 
10187000     812.9733    49408.344    400.52365   -477.68164     610.0752    132.39356    718.19774   -477.68164            0   -10.599213            0            0            0            0            0            0 
10188000    948.60075    46662.889    349.93198   -495.73351    533.01428    37.280762    682.83238   -495.73351            0   -11.222827            0            0            0            0            0            0 
10189000    845.87773    50017.371    402.95722   -471.42655    613.78199    142.35545    759.38269   -471.42655            0   -10.470153            0            0            0            0            0            0 
10190000    888.01969    46588.436    383.33496   -511.94902    583.89349    71.944471    675.30462   -511.94902            0   -11.240762            0            0            0            0            0            0 
10191000    850.68093    47846.867     387.8694    -500.9468    590.80032    89.853519    683.45652    -500.9468            0   -10.945117            0            0            0            0            0            0 
10192000    740.36965    47710.624    353.66362   -498.58702    538.69828    40.111262    555.26825   -498.58702            0   -10.976372            0            0            0            0            0            0 
10193000    763.00532    49561.312    366.64704   -479.05031    558.47455    79.424236    630.92516   -479.05031            0   -10.566499            0            0            0            0            0            0 
10194000     856.9331    46358.582     381.2712   -521.77033    580.74998    58.979648    638.34557   -521.77033            0   -11.296496            0            0            0            0            0            0 
10195000    694.30955    47122.496    365.97153   -526.53074    557.44562    30.914879     508.0675   -526.53074            0   -11.113366            0            0            0            0            0            0 
10196000    875.43975    48106.362    373.15323   -489.45102    568.38474    78.933721    693.12645   -489.45102            0   -10.886077            0            0            0            0            0            0 
10197000    766.14837    47870.873    364.07086   -504.56976    554.55053    49.980774    584.86541   -504.56976            0   -10.939628            0            0            0            0            0            0 
10198000    968.31154    47956.171    399.48582   -489.51602    608.49439    118.97837    796.20729   -489.51602            0    -10.92017            0            0            0            0            0            0 
10199000    958.12728    47847.078    389.65036   -487.48813    593.51306    106.02493    774.60668   -487.48813            0   -10.945069            0            0            0            0            0            0 
10200000     961.3375    46924.823    389.57039   -500.20706    593.39126    93.184191    751.07591   -500.20706            0   -11.160181            0            0            0            0            0            0 
10201000    821.64831    47311.731    388.80087   -506.13588    592.21912    86.083243    653.01489   -506.13588            0   -11.068915            0            0            0            0            0            0 
10202000    766.75598    49920.307     374.4783   -477.70021    570.40308    92.702867    650.92918   -477.70021            0   -10.490511            0            0            0            0            0            0 
10203000    1060.0841    48012.841    392.51965   -467.15005    597.88355     130.7335    873.02351   -467.15005            0   -10.907281            0            0            0            0            0            0 
10204000    812.16131    48512.443    389.80447   -499.85705    593.74781    93.890758    668.49832   -499.85705            0   -10.794953            0            0            0            0            0            0 
10205000    800.80579    47300.721    363.16138   -514.99818    553.16521    38.167032    590.58889   -514.99818            0   -11.071492            0            0            0            0            0            0 
10206000    883.66833    46998.053    378.20398   -506.69566    576.07801    69.382349    675.06488   -506.69566            0   -11.142792            0            0            0            0            0            0 
10207000    927.80548    49779.259    393.53222   -463.62135    599.42589    135.80453    809.37224   -463.62135            0   -10.520236            0            0            0            0            0            0 
10208000    771.16512    47471.485    363.97716   -505.52551     554.4078    48.882289    582.77757   -505.52551            0   -11.031666            0            0            0            0            0            0 
10209000    779.20547    48486.211    360.52659   -498.48703    549.15191    50.664888    601.65795   -498.48703            0   -10.800793            0            0            0            0            0            0 
10210000    981.66615    47949.067    379.53673   -478.85075    578.10804    99.257292    785.72462   -478.85075            0   -10.921788            0            0            0            0            0            0 
10211000    707.90666    47831.002    366.42844   -513.14244    558.14158    44.999139    538.81083   -513.14244            0   -10.948747            0            0            0            0            0            0 
10212000    816.76746    47747.465    384.13784   -507.08056    585.11643    78.035866     646.7901   -507.08056            0   -10.967903            0            0            0            0            0            0 
10213000    914.87227    47155.899    382.57984   -502.30688     582.7433    80.436412    709.61276   -502.30688            0   -11.105494            0            0            0            0            0            0 
10214000    875.84265    48529.501    392.59686   -484.30346    598.00116     113.6977    733.57795   -484.30346            0   -10.791159            0            0            0            0            0            0 
10215000    1041.9535    45714.286    374.14934   -513.14241    569.90201    56.759603    751.42581   -513.14241            0   -11.455709            0            0            0            0            0            0 
10216000    809.80831    46849.071    382.11136   -524.37706     582.0297    57.652648    610.95065   -524.37706            0   -11.178227            0            0            0            0            0            0 
10217000    742.82538    49549.006    414.72156   -493.12653    631.70137    138.57484    675.35637   -493.12653            0   -10.569123            0            0            0            0            0            0 
10218000    990.40046    48665.413    382.15914   -472.54267    582.10248    109.55981    812.48181   -472.54267            0   -10.761021            0            0            0            0            0            0 
10219000    892.22793    47113.577    382.64547   -505.46113    582.84326    77.382133    690.43479   -505.46113            0    -11.11547            0            0            0            0            0            0 
10220000    701.42479    50149.697    379.97914   -485.09307    578.78192     93.68885    606.69824   -485.09307            0   -10.442527            0            0            0            0            0            0 
10221000    789.12545    49146.991    360.03281   -490.14635     548.3998    58.253453    623.86579   -490.14635            0   -10.655577            0            0            0            0            0            0 
10222000    931.79731    46837.997       408.68   -510.31929     622.4989    112.17961    748.67558   -510.31929            0    -11.18087            0            0            0            0            0            0 
10223000    975.40491    47464.325    397.95574   -500.71444    606.16377    105.44933    780.64265   -500.71444            0    -11.03333            0            0            0            0            0            0 
10224000    1003.4596    47461.964    379.41397   -490.35021    577.92106    87.570847    782.14961   -490.35021            0   -11.033878            0            0            0            0            0            0 
10225000    1148.4958    47011.067    400.35476   -485.93143    609.81794     123.8865    911.30463   -485.93143            0   -11.139708            0            0            0            0            0            0 
10226000     960.8726     48363.47    389.53865   -481.24546     593.3429    112.09744    789.83125   -481.24546            0   -10.828205            0            0            0            0            0            0 
10227000    789.58146    47583.608    375.86688   -506.02176    572.51815     66.49639    614.43285   -506.02176            0   -11.005671            0            0            0            0            0            0 
10228000    806.39262    48773.467    383.67482   -487.69594    584.41116    96.715216    670.31115   -487.69594            0   -10.737181            0            0            0            0            0            0 
10229000    882.36696    48308.277    382.81212   -494.18777     583.0971    88.909331    710.56039   -494.18777            0   -10.840576            0            0            0            0            0            0 
10230000    788.04055      50072.6     384.7778   -481.56609    586.09121    104.52512    679.99765   -481.56609            0   -10.458605            0            0            0            0            0            0 
10231000    752.67308    49079.705     389.9015   -492.41706    593.89561    101.47855    640.22475   -492.41706            0   -10.670185            0            0            0            0            0            0 
10232000    716.45058    49049.708    362.65645   -489.65908     552.3961    62.737026    575.24255   -489.65908            0   -10.676711            0            0            0            0            0            0 
10233000    943.64048    47523.139    389.47884   -497.54017    593.25181    95.711641    749.72643   -497.54017            0   -11.019675            0            0            0            0            0            0 
10234000    829.63574    48709.945    379.65451   -499.05926    578.28745    79.228197    668.58863   -499.05926            0   -10.751183            0            0            0            0            0            0 
10235000    911.30549    47945.364    398.87183   -492.95393    607.55915    114.60522    751.82096   -492.95393            0   -10.922632            0            0            0            0            0            0 
10236000    870.61357    48490.662    386.42967   -486.79687    588.60732    101.81045    717.49667   -486.79687            0   -10.799802            0            0            0            0            0            0 
10237000    874.84256    48260.845    392.10274   -491.84142    597.24852    105.40711    721.15185   -491.84142            0    -10.85123            0            0            0            0            0            0 
10238000    826.50298    49251.337     390.4577   -483.26207     594.7428    111.48073    705.14148   -483.26207            0   -10.633002            0            0            0            0            0            0 
10239000    882.47562    48743.088    370.15181   -486.37447    563.81299    77.438519    704.76215   -486.37447            0   -10.743873            0            0            0            0            0            0 
10240000    775.50284    47717.811    371.85333   -504.39114    566.40473    62.013593     601.6979   -504.39114            0   -10.974719            0            0            0            0            0            0 
10241000    826.52348    48387.135    372.08145   -490.73306    566.75221     76.01915    659.27754   -490.73306            0   -10.822909            0            0            0            0            0            0 
10242000    925.07002    47196.344    387.67502   -499.27382    590.50425    91.230427    727.96562   -499.27382            0   -11.095977            0            0            0            0            0            0 
10243000    888.96136    48696.418    388.04793   -478.65783    591.07226    112.41443    743.74351   -478.65783            0    -10.75417            0            0            0            0            0            0 
10244000    921.42461    46877.318     372.5896   -505.51025    567.52622    62.015965     691.9549   -505.51025            0   -11.171491            0            0            0            0            0            0 
10245000    824.30084    49616.494    387.60139   -484.27171    590.39208    106.12038    702.58914   -484.27171            0   -10.554747            0            0            0            0            0            0 
10246000    967.44544    47036.407    378.46358   -498.59775    576.47343    77.875674    741.52173   -498.59775            0   -11.133706            0            0            0            0            0            0 
10247000    920.36133    48152.726    397.02318   -489.25616     604.7433    115.48714    761.81835   -489.25616            0   -10.875595            0            0            0            0            0            0 
10248000    880.18528    48044.122    386.28327   -496.24465    588.38434    92.139691    708.86284   -496.24465            0   -10.900179            0            0            0            0            0            0 
10249000    985.05713    48256.139    372.83331    -472.9057    567.89744    94.991739    788.24173    -472.9057            0   -10.852289            0            0            0            0            0            0 
10250000    870.42738    48447.722    396.06698   -487.91734    603.28682    115.36948    730.37893   -487.91734            0   -10.809374            0            0            0            0            0            0 
10251000     799.0885     47119.47    373.83364   -510.58616    569.42113    58.834977    607.95991   -510.58616            0    -11.11408            0            0            0            0            0            0 
10252000     885.4749    48625.085    398.45436    -488.7405    606.92327    118.18276    746.11462    -488.7405            0   -10.769946            0            0            0            0            0            0 
10253000    945.37149    47379.674    395.32388   -499.75986    602.15494    102.39507    755.63159   -499.75986            0   -11.053042            0            0            0            0            0            0 
10254000    982.52388    46941.927    394.21813   -500.05995    600.47067    100.41072    773.04642   -500.05995            0   -11.156115            0            0            0            0            0            0 
10255000    779.14986    47654.009    382.36921   -512.89664    582.42246    69.525821    611.02316   -512.89664            0   -10.989412            0            0            0            0            0            0 
10256000    990.53067    48220.469    365.87324   -472.71743     557.2959    84.578469    781.16528   -472.71743            0   -10.860316            0            0            0            0            0            0 
10257000    1005.5686    47821.952    397.74461    -488.9252    605.84217    116.91698     818.2348    -488.9252            0   -10.950819            0            0            0            0            0            0 
10258000    857.88613    48116.605    361.66521   -492.20631    550.88626    58.679944    660.68552   -492.20631            0   -10.883759            0            0            0            0            0            0 
10259000    788.64048    47113.621    366.26798   -514.26789    557.89717    43.629281    585.50718   -514.26789            0   -11.115459            0            0            0            0            0            0 
10260000    821.18193    49986.299    363.88364   -465.00075    554.26535    89.264599    687.90533   -465.00075            0   -10.476662            0            0            0            0            0            0 
10261000    841.52684    46787.862    386.65837   -514.44766    588.95568    74.508026    648.72637   -514.44766            0   -11.192851            0            0            0            0            0            0 
10262000    753.76081    48012.537    354.06989    -502.9835    539.31711    36.333605    564.12718    -502.9835            0    -10.90735            0            0            0            0            0            0 
10263000    893.70398    47300.683    364.09218   -504.45955    554.58301    50.123457    666.62901   -504.45955            0   -11.071501            0            0            0            0            0            0 
10264000    777.65518    48530.912    366.50611   -492.63757    558.25989    65.622317    616.02611   -492.63757            0   -10.790845            0            0            0            0            0            0 
10265000    982.85472    46509.299    374.71204   -511.17744     570.7591    59.581661     726.2426   -511.17744            0   -11.259889            0            0            0            0            0            0 
10266000     733.7189    48424.479    370.98691   -502.67726    565.08501    62.407749     580.5757   -502.67726            0   -10.814562            0            0            0            0            0            0 
10267000    794.90953    48444.727    357.95697   -495.05594    545.23789    50.181946    611.79876   -495.05594            0   -10.810042            0            0            0            0            0            0 
10268000     969.3716     47521.88    401.47612   -496.01342    611.52598    115.51257    787.34319   -496.01342            0   -11.019967            0            0            0            0            0            0 
10269000     987.6337    48334.305       411.13   -484.33596    626.23072    141.89476    838.08393   -484.33596            0   -10.834738            0            0            0            0            0            0 
10270000     1001.942    48314.345    384.16352   -480.64635    585.15555    104.50919    810.49273   -480.64635            0   -10.839214            0            0            0            0            0            0 
10271000    999.00165    46179.611    385.13157   -510.70851    586.63007    75.921556    748.73144   -510.70851            0   -11.340276            0            0            0            0            0            0 
10272000    726.23584    49312.146    385.62599   -490.81644    587.38317    96.566724    618.85163   -490.81644            0    -10.61989            0            0            0            0            0            0 
10273000    803.20509    47249.566    386.84322   -517.44169    589.23725    71.795557     625.2733   -517.44169            0   -11.083479            0            0            0            0            0            0 
10274000    918.29685    48447.519     375.9873   -484.26435    572.70157    88.437217    737.26663   -484.26435            0   -10.809419            0            0            0            0            0            0 
10275000    740.80727    48237.601    397.79622   -510.09585    605.92079    95.824939    616.97984   -510.09585            0   -10.856459            0            0            0            0            0            0 
10276000    857.65849    48280.791    387.41839   -492.14627    590.11334    97.967072    701.86655   -492.14627            0   -10.846747            0            0            0            0            0            0 
10277000    860.92439    48757.718    393.33078   -487.48483    599.11906    111.63423    723.82146   -487.48483            0   -10.740649            0            0            0            0            0            0 
10278000    876.51805    47196.333    383.74393   -508.48485    584.51643     76.03158    679.34781   -508.48485            0    -11.09598            0            0            0            0            0            0 
10279000    909.57502    46821.367     366.6135   -503.45783    558.42346     54.96563    676.06131   -503.45783            0   -11.184841            0            0            0            0            0            0 
10280000    882.63997    49771.314    409.91269   -472.03381    624.37653    152.34272    793.01892   -472.03381            0   -10.521915            0            0            0            0            0            0 
10281000    945.52324    46280.235    387.35665     -511.376     590.0193    78.643297    716.82397     -511.376            0    -11.31562            0            0            0            0            0            0 
10282000    846.62774    47251.835    363.99943   -504.80693    554.44172     49.63479    633.06252   -504.80693            0   -11.082946            0            0            0            0            0            0 
10283000    939.90729    47091.341    389.53769   -503.61431    593.34145    89.727136    735.23564   -503.61431            0   -11.120718            0            0            0            0            0            0 
10284000    996.92251    49343.562    396.50665   -469.83033    603.95652     134.1262     851.5368   -469.83033            0   -10.613128            0            0            0            0            0            0 
10285000    868.91964    46562.324    361.17652   -516.48198    550.14188    33.659903    623.71171   -516.48198            0   -11.247066            0            0            0            0            0            0 
10286000    894.95265    49166.154    383.74478   -481.02878    584.51772    103.48894    745.20393   -481.02878            0   -10.651424            0            0            0            0            0            0 
10287000    918.48551    48797.713    370.59316   -477.39157    564.48526    87.093694     740.7473   -477.39157            0   -10.731846            0            0            0            0            0            0 
10288000    827.19776    48355.576    365.77132    -491.6512    557.14066    65.489459    648.84295    -491.6512            0   -10.829972            0            0            0            0            0            0 
10289000    984.49512    47296.461    407.80968   -491.51862    621.17323    129.65461    808.73017   -491.51862            0   -11.072489            0            0            0            0            0            0 
10290000    884.68189    48589.461    396.26697   -488.36656    603.59145    115.22489    742.13477   -488.36656            0   -10.777842            0            0            0            0            0            0 
10291000    1045.4578    46352.494    410.57923   -514.58676     625.3918    110.80503    817.53825   -514.58676            0    -11.29798            0            0            0            0            0            0 
10292000    960.61417    47313.737    409.54767   -505.03601    623.82053    118.78452    781.62974   -505.03601            0   -11.068446            0            0            0            0            0            0 
10293000    865.08261     48871.48    367.85433   -477.33578    560.31348    82.977705    699.55704   -477.33578            0   -10.715647            0            0            0            0            0            0 
10294000    820.63498    49072.658    375.13184   -475.61899    571.39855    95.779561      683.087   -475.61899            0   -10.671718            0            0            0            0            0            0 
10295000    926.16987    47334.908    387.16063   -500.34648    589.72073    89.374252    728.73809   -500.34648            0   -11.063496            0            0            0            0            0            0 
10296000    963.02847    49774.172    379.02117     -459.086    577.32275    118.23674    817.30417     -459.086            0   -10.521311            0            0            0            0            0            0 
10297000    900.76071    48339.835    374.27784   -487.56164    570.09774    82.536101    717.56061   -487.56164            0   -10.833499            0            0            0            0            0            0 
10298000    739.19109     49649.81    375.58926   -485.30072    572.09529    86.794575    622.03659   -485.30072            0   -10.547665            0            0            0            0            0            0 
10299000    948.16271    46153.296    384.73713   -514.30232    586.02927    71.726942    709.93382   -514.30232            0   -11.346742            0            0            0            0            0            0 
10300000    750.56665    50234.415    404.87969   -478.29335    616.71029    138.41694    688.29514   -478.29335            0   -10.424916            0            0            0            0            0            0 
10301000    815.50431    47369.459    376.74492   -509.08732    573.85558    64.768252    628.14714   -509.08732            0   -11.055426            0            0            0            0            0            0 
10302000    782.95368    48355.549    385.71995   -502.17185    587.52629    85.354439    637.50597   -502.17185            0   -10.829978            0            0            0            0            0            0 
10303000     1001.205    47240.028    367.29466   -484.23062    559.46099    75.230376    765.00789   -484.23062            0   -11.085716            0            0            0            0            0            0 
10304000    720.09029    49528.134    363.32406   -483.97717      553.413    69.435833    589.56931   -483.97717            0   -10.573577            0            0            0            0            0            0 
10305000    767.72483    50225.934    365.68776   -469.40285    557.01338    87.610536    649.96416   -469.40285            0   -10.426676            0            0            0            0            0            0 
10306000    744.90207    47826.242    373.58578   -512.43215     569.0436     56.61145    576.17817   -512.43215            0   -10.949837            0            0            0            0            0            0 
10307000    915.95975    48802.158    354.74951   -479.43241     540.3523    60.919891    712.83539   -479.43241            0   -10.730869            0            0            0            0            0            0 
10308000    823.48681    49340.917    377.72228   -481.74807    575.34428    93.596204    686.16633   -481.74807            0   -10.613697            0            0            0            0            0            0 
10309000     974.8354    48109.142    376.04578   -476.47455    572.79065    96.316109    780.28256   -476.47455            0   -10.885448            0            0            0            0            0            0 
10310000    712.12329    49387.764    380.82266   -499.76833    580.06676    80.298425    593.21939   -499.76833            0   -10.603629            0            0            0            0            0            0 
10311000    757.34344    47428.985    381.80557   -521.51569    581.56393    60.048235    583.90503   -521.51569            0   -11.041551            0            0            0            0            0            0 
10312000    1004.8344    48514.749    390.81017   -467.79888    595.27968     127.4808    838.43914   -467.79888            0    -10.79444            0            0            0            0            0            0 
10313000    1097.5771    46801.235    398.01807   -491.18989    606.25871    115.06881    864.21789   -491.18989            0   -11.189652            0            0            0            0            0            0 
10314000      926.583    48950.051    360.60403   -473.53021    549.26987     75.73966    737.21456   -473.53021            0   -10.698447            0            0            0            0            0            0 
10315000     978.4592    47794.129    372.99963   -484.45305    568.15078    83.697726    765.71153   -484.45305            0   -10.957194            0            0            0            0            0            0 
10316000    959.60647    46736.535    389.80026   -504.11864    593.74139    89.622751    743.69477   -504.11864            0   -11.205143            0            0            0            0            0            0 
10317000    887.98671    48647.354    393.59194   -493.63271    599.51686    105.88415    735.88565   -493.63271            0   -10.765016            0            0            0            0            0            0 
10318000    874.68711    47261.943    369.00744    -499.2014     562.0699    62.868501    665.76143    -499.2014            0   -11.080576            0            0            0            0            0            0 
10319000    886.24816     48656.61    390.13517   -484.51628    594.25152    109.73524    738.62291   -484.51628            0   -10.762968            0            0            0            0            0            0 
10320000    878.71535    46376.028    362.99569   -519.23849    552.91283    33.674339    627.99065   -519.23849            0   -11.292247            0            0            0            0            0            0 
10321000    868.90473    47992.552    393.90402   -501.22848    599.99221    98.763734     706.9294   -501.22848            0   -10.911892            0            0            0            0            0            0 
10322000    1043.9996    47654.508    380.18932   -477.53193    579.10206    101.57013    827.14164   -477.53193            0   -10.989297            0            0            0            0            0            0 
10323000    914.53853    48831.571    390.07455    -481.1645    594.15918    112.99468    764.29095    -481.1645            0   -10.724405            0            0            0            0            0            0 
10324000    950.80255    46941.467    392.31916   -508.30211    597.57817    89.276058    740.18896   -508.30211            0   -11.156225            0            0            0            0            0            0 
10325000    835.27042    48341.025    392.78195   -500.30904    598.28309    97.974047    686.84326   -500.30904            0   -10.833232            0            0            0            0            0            0 
10326000    808.13203    48607.368    368.63366   -494.16876    561.50055    67.331788    640.20737   -494.16876            0   -10.773872            0            0            0            0            0            0 
10327000    861.90568    49201.276    386.74728   -477.71033    589.09112    111.38079    729.84133   -477.71033            0    -10.64382            0            0            0            0            0            0 
10328000    1000.5982    46098.164    393.55909   -511.77643    599.46682    87.690395    760.38698   -511.77643            0   -11.360312            0            0            0            0            0            0 
10329000    757.61924    49574.513    380.49964   -480.74388    579.57474    98.830864    646.58459   -480.74388            0   -10.563685            0            0            0            0            0            0 
10330000    835.09575    47722.732    361.06819   -497.94833    549.97687    52.028538     633.2444   -497.94833            0   -10.973587            0            0            0            0            0            0 
10331000    775.42874    49943.303    393.32751   -485.59255    599.11408    113.52152    678.32198   -485.59255            0   -10.485681            0            0            0            0            0            0 
10332000    938.75308    46260.611    373.97371   -506.49882    569.63449    63.135665    696.47816   -506.49882            0    -11.32042            0            0            0            0            0            0 
10333000    786.28972    48657.166    347.65986   -487.40731    529.55339    42.146077    600.10895   -487.40731            0   -10.762845            0            0            0            0            0            0 
10334000    869.53507     48315.39    371.04382    -487.7425     565.1717    77.429204    690.13005    -487.7425            0    -10.83898            0            0            0            0            0            0 
10335000    814.75333    47810.949    359.78784   -497.56231    548.02665    50.464347    618.57038   -497.56231            0   -10.953339            0            0            0            0            0            0 
10336000    991.06381    48377.946    393.92269   -476.94547    600.02066    123.07518    822.31303   -476.94547            0   -10.824965            0            0            0            0            0            0 
10337000    826.42165    49026.014     395.2761   -486.88071    602.08216    115.20145    706.08808   -486.88071            0   -10.681871            0            0            0            0            0            0 
10338000    894.10542    48826.187    386.28329   -472.12939    588.38437    116.25498    752.92943   -472.12939            0   -10.725588            0            0            0            0            0            0 
10339000    988.44672     47661.92     397.2135    -484.2546    605.03319    120.77859    807.84813    -484.2546            0   -10.987588            0            0            0            0            0            0 
10340000    1224.4633    45123.683    406.48386   -505.87998    619.15375    113.27378    919.07182   -505.87998            0   -11.605647            0            0            0            0            0            0 
10341000    852.17691    47703.952    379.87492   -496.82254    578.62318     81.80064    674.67138   -496.82254            0   -10.977907            0            0            0            0            0            0 
10342000    762.49544    49245.268    380.10691   -489.15023    578.97655    89.826312    637.44422   -489.15023            0   -10.634312            0            0            0            0            0            0 
10343000      976.244    48178.324    422.08028   -483.47674    642.91013    159.43338    845.37311   -483.47674            0   -10.869817            0            0            0            0            0            0 
10344000    894.96966    48135.326    359.28158   -492.28252    547.25553    54.973004    683.24561   -492.28252            0   -10.879526            0            0            0            0            0            0 
10345000    928.14541    46912.211    357.48883   -499.47957    544.52482    45.045258    680.05124   -499.47957            0   -11.163182            0            0            0            0            0            0 
10346000    866.52876    47838.047    376.24065   -497.78042    573.08748    75.307058    679.85718   -497.78042            0   -10.947135            0            0            0            0            0            0 
10347000    904.63154    48580.207    366.94375   -477.75905    558.92649    81.167442     722.0921   -477.75905            0   -10.779895            0            0            0            0            0            0 
10348000    1032.0631     48128.53     401.5823   -485.98068    611.68773    125.70705    850.11753   -485.98068            0   -10.881063            0            0            0            0            0            0 
10349000    903.23584    48064.865    392.07044   -500.08244    597.19931    97.116869    730.26419   -500.08244            0   -10.895475            0            0            0            0            0            0 
10350000    869.04643     49084.33    363.08182   -477.69502    553.04402    75.349003    697.45121   -477.69502            0    -10.66918            0            0            0            0            0            0 
10351000    1025.7312     48350.52    422.10595   -483.23931    642.94923    159.70992    882.99685   -483.23931            0   -10.831105            0            0            0            0            0            0 
10352000     991.2441    47522.721    356.37221   -480.28867    542.82398    62.535315    749.53701   -480.28867            0   -11.019772            0            0            0            0            0            0 
10353000    843.27318    47376.749    360.27031   -502.04992    548.76155    46.711633    629.36388   -502.04992            0   -11.053725            0            0            0            0            0            0 
[...]
14939000    785.30917    48308.245    371.04266   -498.45462    565.16992    66.715305    619.98619   -498.45462            0   -10.840583            0            0            0            0            0            0 
14940000    966.38475    49094.809    355.63186   -466.77562     541.6963    74.920676    766.84967   -466.77562            0   -10.666903            0            0            0            0            0            0 
14941000    1066.9505    45889.114    377.50783   -511.32068    575.01764    63.696957    777.74893   -511.32068            0   -11.412065            0            0            0            0            0            0 
14942000    933.04243    47680.392    396.53409   -492.07673    603.99832    111.92159    760.73095   -492.07673            0   -10.983331            0            0            0            0            0            0 
14943000    866.55665    47929.201    380.25996   -494.62294    579.20967     84.58673     690.3083   -494.62294            0   -10.926315            0            0            0            0            0            0 
14944000    908.12838    47659.145    368.20016   -499.57401    560.84024     61.26623    692.46971   -499.57401            0   -10.988228            0            0            0            0            0            0 
14945000    1014.4209    46434.985     375.9335   -501.61151    572.61962    71.008116    757.98066   -501.61151            0   -11.277909            0            0            0            0            0            0 
14946000     785.5653    49068.302    392.76539   -494.21659    598.25785    104.04127    666.20032   -494.21659            0   -10.672665            0            0            0            0            0            0 
14947000    981.06169    48362.458    391.81024   -476.10873    596.80299    120.69425    812.65359   -476.10873            0   -10.828431            0            0            0            0            0            0 
14948000    974.98358    47464.838    385.54913   -487.63871    587.26609    99.627383    774.53635   -487.63871            0    -11.03321            0            0            0            0            0            0 
14949000    801.71695      48602.6    372.75246   -492.11041    567.77428    75.663868    643.93613   -492.11041            0   -10.774929            0            0            0            0            0            0 
14950000    966.96856    47490.006    377.14615   -496.73394    574.46673    77.732791    747.44848   -496.73394            0   -11.027363            0            0            0            0            0            0 
14951000    958.38084    47489.881     387.7158   -497.52259    590.56636    93.043767     756.8099   -497.52259            0   -11.027392            0            0            0            0            0            0 
14952000    780.41008    49568.893    379.42633   -478.10828    577.93988    99.831599    663.99899   -478.10828            0   -10.564883            0            0            0            0            0            0 
14953000    976.17427    47199.301    377.40748   -494.86668    574.86479    79.998107    751.95098   -494.86668            0   -11.095282            0            0            0            0            0            0 
14954000    922.35111    48647.858     391.3973   -483.65331      596.174    112.52068    766.90952   -483.65331            0   -10.764905            0            0            0            0            0            0 
14955000    871.21532    46762.843    376.39998   -515.17731    573.33017    58.152859    652.31134   -515.17731            0   -11.198839            0            0            0            0            0            0 
14956000     876.9885    46727.556    387.53231   -514.74087    590.28687    75.545996     673.1904   -514.74087            0   -11.207296            0            0            0            0            0            0 
14957000    987.67168    48857.219    380.24709   -464.92573    579.19007    114.26434    818.01244   -464.92573            0   -10.718775            0            0            0            0            0            0 
14958000    859.00363     47351.41    376.97431   -512.46334    574.20498     61.74164    654.94528   -512.46334            0    -11.05964            0            0            0            0            0            0 
14959000    748.21726    48771.946    371.65216   -489.43845    566.09832     76.65987    608.85843   -489.43845            0   -10.737516            0            0            0            0            0            0 
14960000    931.29219    48220.814    376.03248   -481.39246     572.7704    91.377932     746.3102   -481.39246            0   -10.860239            0            0            0            0            0            0 
14961000    1016.4506    47318.939    401.50415   -492.36756    611.56869    119.20113    820.65182   -492.36756            0   -11.067229            0            0            0            0            0            0 
14962000    993.70967    49249.831    394.31927   -464.77054    600.62473    135.85419    849.59437   -464.77054            0   -10.633327            0            0            0            0            0            0 
14963000    698.34227    48297.926    379.81424   -507.57424    578.53074    70.956504    562.85184   -507.57424            0   -10.842899            0            0            0            0            0            0 
14964000    901.07438    47927.466    404.79816   -492.75744     616.5861    123.82867    753.65527   -492.75744            0    -10.92671            0            0            0            0            0            0 
14965000    799.36596    51027.906    386.96774    -471.8322    589.42691    117.59472    712.47461    -471.8322            0   -10.262807            0            0            0            0            0            0 
14966000    934.51592    46714.032    370.26131    -510.4623    563.97979    53.517485    690.18099    -510.4623            0    -11.21054            0            0            0            0            0            0 
14967000    943.17232     47400.69    401.73765    -499.1887    611.92435    112.73565    764.74165    -499.1887            0   -11.048142            0            0            0            0            0            0 
14968000    992.03693    47069.609    391.58905   -498.39513    596.46607     98.07094    779.06656   -498.39513            0   -11.125853            0            0            0            0            0            0 
14969000    891.02607    48446.318     391.0353   -490.86167     595.6226    104.76093    734.30636   -490.86167            0   -10.809687            0            0            0            0            0            0 
14970000    940.82481    47296.283     382.8268   -492.27945    583.11946    90.840008    739.79064   -492.27945            0   -11.072531            0            0            0            0            0            0 
14971000    939.63609    47205.799    382.67606   -496.33929    582.88985    86.550559     733.4413   -496.33929            0   -11.093754            0            0            0            0            0            0 
14972000    993.16446    47462.922    374.95521   -485.61037    571.12951    85.519141    772.98562   -485.61037            0   -11.033656            0            0            0            0            0            0 
14973000    862.90017    48097.137    362.28098   -492.83715     551.8242    58.987043    664.26613   -492.83715            0   -10.888165            0            0            0            0            0            0 
14974000    798.48164    48266.919    382.80913   -493.03026    583.09255    90.062295    652.13229   -493.03026            0   -10.849865            0            0            0            0            0            0 
14975000    875.87707    49346.967    363.01796   -467.93327    552.94676    85.013489    715.36022   -467.93327            0   -10.612396            0            0            0            0            0            0 
14976000    839.28525    47254.187    371.17067   -513.04041    565.36491    52.324499    630.72116   -513.04041            0   -11.082394            0            0            0            0            0            0 
14977000    1147.4937    46800.487    381.59251   -481.40732    581.23939    99.832077    883.03912   -481.40732            0   -11.189831            0            0            0            0            0            0 
14978000    1102.7988    47347.615    398.22115   -483.14917    606.56804    123.41887    884.91952   -483.14917            0   -11.060526            0            0            0            0            0            0 
14979000    973.46272    46987.366    379.77788   -498.32293    578.47537    80.152444    747.22998   -498.32293            0   -11.145327            0            0            0            0            0            0 
14980000    804.05708    48638.925     380.6035   -489.65489    579.73294    90.078053      660.435   -489.65489            0   -10.766882            0            0            0            0            0            0 
14981000    843.26167    47660.747    387.00259   -508.01162       589.48    81.468377    667.60532   -508.01162            0   -10.987859            0            0            0            0            0            0 
14982000    847.28259    47312.171    389.32153   -514.60091     593.0122    78.411291    663.03585   -514.60091            0   -11.068812            0            0            0            0            0            0 
14983000    954.01667    47783.322    416.20833   -493.34611    633.96601     140.6199    805.44619   -493.34611            0   -10.959672            0            0            0            0            0            0 
14984000    835.08616    48779.123    375.83071   -496.44638    572.46306    76.016676    670.09152   -496.44638            0   -10.735936            0            0            0            0            0            0 
14985000    959.56311    46170.316    372.91047   -514.57165    568.01497    53.443322    699.56198   -514.57165            0   -11.342559            0            0            0            0            0            0 
14986000    932.30758    47706.714    362.61395   -487.99505    552.33136    64.336314    712.99257   -487.99505            0   -10.977271            0            0            0            0            0            0 
14987000    823.15208    47262.811    363.61956   -508.28608    553.86311    45.577024    612.95898   -508.28608            0   -11.080372            0            0            0            0            0            0 
14988000    803.85676    48732.012    382.68255   -491.06934    582.89974    91.830395    663.13654   -491.06934            0   -10.746315            0            0            0            0            0            0 
14989000    1006.4725    47547.687    411.69622   -496.63548    627.09318    130.45771    828.38019   -496.63548            0   -11.013986            0            0            0            0            0            0 
14990000    820.63292    47953.872    394.44556    -507.0962    600.81708     93.72088     667.6371    -507.0962            0   -10.920694            0            0            0            0            0            0 
14991000    897.47996    47633.902    385.20136   -497.62119    586.73637    89.115182    712.58697   -497.62119            0   -10.994051            0            0            0            0            0            0 
14992000    967.66659    46132.183    378.89946   -511.35211    577.13735    65.785239    716.82219   -511.35211            0   -11.351935            0            0            0            0            0            0 
14993000    797.54938    49928.977    369.28269    -476.2869    562.48915    86.202247    666.94813    -476.2869            0    -10.48869            0            0            0            0            0            0 
14994000    905.53439    48943.545    385.70191   -484.70399    587.49881    102.79482    749.15747   -484.70399            0    -10.69987            0            0            0            0            0            0 
14995000       1020.2    47246.859    393.87559   -490.43943     599.9489    109.50947    812.47518   -490.43943            0   -11.084114            0            0            0            0            0            0 
14996000     814.4564    49742.963    371.80289   -478.87728     566.3279    87.450624    678.29809   -478.87728            0   -10.527912            0            0            0            0            0            0 
14997000    914.25494    46518.833    390.04237   -517.80708    594.11018    76.303098    696.56058   -517.80708            0   -11.257581            0            0            0            0            0            0 
14998000    944.10907    48289.075    395.97071    -485.5319    603.14019    117.60829    782.49391    -485.5319            0   -10.844887            0            0            0            0            0            0 
14999000    902.69747    48471.094    394.62964   -484.28242    601.09747    116.81506    754.93297   -484.28242            0   -10.804162            0            0            0            0            0            0 
15000000    901.30869    47513.375    379.10967   -496.50176    577.45755    80.955786    705.50307   -496.50176            0    -11.02194            0            0            0            0            0            0 
Loop time of 1685.07 on 8 procs for 5000000 steps with 512 atoms

Pair  time (%) = 964.832 (57.2576)
Bond  time (%) = 0.475012 (0.0281894)
Neigh time (%) = 36.4769 (2.16471)
Comm  time (%) = 517.649 (30.7197)
Outpt time (%) = 0.264634 (0.0157046)
Other time (%) = 165.374 (9.81405)

Nlocal:    64 ave 66 max 61 min
Histogram: 1 0 0 0 2 0 1 0 3 1
Nghost:    1442.88 ave 1470 max 1422 min
Histogram: 1 0 1 2 0 3 0 0 0 1
Neighs:    6974.12 ave 7373 max 6370 min
Histogram: 1 0 0 0 2 2 0 0 1 2

Total # of neighbors = 55793
Ave neighs/atom = 108.971
Ave special neighs/atom = 0
Neighbor list builds = 89710
Dangerous builds = 0

Averages
Group Pressure(MPa) Volume(m3) Temperature(K) PE(J) KE(J) ET(J) ET^2(J) H(J) H^2(J^2) V^2(m6) V*H(m3*J) Hconf(J) Uext*Hconf(J^2) V*Hconf(m3*J) Uext(J)
Block1 89.613712919885685437 4.8033698633400399427e-26 380.06910597353851244 -3.4289888043580053815e-18 4.0221522557137402115e-18 5.9316345135573665961e-19 3.8546955660713454977e-37 4.8925577407470728528e-18 2.4237356237733740196e-35 2.3083634554674189557e-51 2.3494025617673004344e-43 8.7040548503334458204e-19 -2.9593441256134263292e-36 4.1740582657206880464e-44 -3.4289888043580053815e-18
Block2 90.40795360373249423 4.7980272122358279468e-26 380.81894248278922532 -3.4285434790720153816e-18 4.0300875405335204426e-18 6.0154406146150506099e-19 3.9345764405953807981e-37 4.9339830151650943153e-18 2.462032504888695031e-35 2.303294982205877081e-51 2.366669721019461754e-43 9.0389547463157233197e-19 -3.07349490603783826e-36 4.3299666101637242428e-44 -3.4285434790720153816e-18
Block3 89.553988973911287985 4.7960530374467830674e-26 379.66020122920735957 -3.436494854778318148e-18 4.0178249449328030337e-18 5.8133009015448199678e-19 3.6801379358398758956e-37 4.8715534487328063749e-18 2.4005254121943976107e-35 2.3012613746498955735e-51 2.3357552028611634242e-43 8.5372850380000295601e-19 -2.9078376402948143479e-36 4.0878888562278034776e-44 -3.436494854778318148e-18
Block4 90.054222631663975562 4.7937330460065071728e-26 380.11267282077625396 -3.4361976874092533905e-18 4.0226133100065957868e-18 5.8641562259734855923e-19 3.7586822368489648518e-37 4.8986458421187305815e-18 2.4286492899642690754e-35 2.2990745901375809972e-51 2.3477937161005334307e-43 8.7603253211212574286e-19 -2.9832806559534653019e-36 4.1941840600866620061e-44 -3.4361976874092533905e-18
Block5 89.965256708116555728 4.7974701248658487511e-26 380.47710571063458929 -3.4335696446502296825e-18 4.0264699890866995965e-18 5.9290034443646981766e-19 3.8312935495985262328e-37 4.9038314840499289952e-18 2.43377040181008299e-35 2.3026839571537455134e-51 2.3518696315076606377e-43 8.7736149496322689497e-19 -2.9866081030091787721e-36 4.2021178688235930117e-44 -3.4335696446502296825e-18
Ave_blocks 89.919026967462002631 4.7977306567790013762e-26 380.22760564338921085 -3.4327588940535644739e-18 4.0238296080546719683e-18 5.9107071400110845737e-19 3.811877145790819574e-37 4.9001143061627266239e-18 2.4297426465261641195e-35 2.3029356719229037429e-51 2.3502981666512240158e-43 8.7628469810805446305e-19 -2.9821130861817449363e-36 4.1976431322044946548e-44 -3.4327588940535644739e-18
Stdev_blocks 0.31174788421984284126 3.1859620577464292054e-29 0.39299084199931644257 3.418283738640038826e-21 4.1588989391095778184e-21 6.8405808684713351199e-21 8.6545304405855931673e-39 2.0178639724193318233e-20 1.974732538153345136e-37 3.0778083865610137485e-54 9.8900907042873491041e-46 1.61674061458780232e-20 5.3679554436910598703e-38 7.764501051475241091e-46 3.418283738640038826e-21






Properties
Group rho(kg/m3) Cp(J/K) Cp_conf(J/K) Cp_id(J/K) Cp2(J/K) kT(1/Pa) aP(1/K) aP2(1/K) Cv(J/K) uJT(K/Pa) sos(m/s) Cv2(J/K) uJT2(K/Pa) sos2(m/s) CvNVT(J/K)
Block1 283.95136223584847812 1.5054035914778750247e-19 2.534954303614234464e-21 3.3593391427925775701e-20 3.6128345731540010165e-20 4.4722784508027958552e-09 -0.0007034406531803091573 -0.00071204432777011454538 1.4852043672835450909e-19 -4.0438191724493788476e-07 893.40210018144978221 3.4058710422875468838e-20 -1.6893347197881782583e-06 913.95232514473991614 1.6860699512991055627e-20
Block2 284.26754490674352382 1.3791253915214870188e-19 2.5542356637334424215e-21 3.3627690943562863803e-20 3.6181926607296307729e-20 4.7111126352642483592e-09 -0.00069612104347222328316 -0.00072327996191636075799 1.3603310425375805091e-19 -4.4013151040527263733e-07 870.06999049731803098 3.4152979953256581786e-20 -1.6913388017102407738e-06 889.41850166095719032 1.5783363936749462697e-20
Block3 284.3845565027614839 1.3729062980154859398e-19 3.0065286297632965187e-21 3.3574713123442888924e-20 3.6581241753206188452e-20 4.1722677094259193261e-09 -0.00069952562065532563132 -0.0006955067277838112216 1.3515505821031098695e-19 -4.4211309874508606801e-07 925.26302872231690344 3.4470138112397761721e-20 -1.6572648721457026334e-06 945.73317225215362214 1.5109404546754726258e-20
Block4 284.52218822536707421 1.4525571638598665128e-19 4.0515760101690016537e-21 3.359538260058043612e-20 3.7646958610749440783e-20 4.3205154040007480252e-09 -0.00050856758518712566995 -0.00055235691734434409078 1.4416490920504891296e-19 -3.938174709064265761e-07 905.33849277128217636 3.6360220302171109436e-20 -1.5406862099740190413e-06 917.75307078935634308 1.6033843472386166344e-20
Block5 284.30055435856723989 1.451672056533069363e-19 2.7267115891711179261e-21 3.3612046768888049917e-20 3.6338758358059164834e-20 4.4124488852843411587e-09 -0.00076014970007976705516 -0.00072979732000159371064 1.4277686731168931976e-19 -4.2605988625810089323e-07 900.27799935247173835 3.4135498869458722999e-20 -1.6867910612159787532e-06 921.19849108789640013 1.5809811453527606483e-20
Ave_blocks 284.28524124585754862 1.4323329002815568681e-19 2.9748012392902184463e-21 3.3600644972880006504e-20 3.6575446212170221189e-20 4.4177246169556103794e-09 -0.00067356092051495020274 -0.00068259705096324486528 1.4133007514183235112e-19 -4.2130077671196486482e-07 898.87032230496765806 3.4635509532031924141e-20 -1.6530831329668240614e-06 917.61111218702058068 1.591942458448180288e-20
Stdev_blocks 0.18869564728213392146 4.9969810403994412296e-21 5.643296446529210396e-22 1.7968042599229774537e-23 5.5838160214829344783e-22 1.7820168795861970283e-10 8.5786176828792881882e-05 6.615022133437298453e-05 5.0600301617154008321e-21 1.9245666042912024334e-08 17.887170269814095747 8.7378688665710716026e-22 5.7557716086955860162e-08 17.95522048221763356 5.6316075374757261668e-22






