LAMMPS (28 Oct 2012)
Scanning data file ...
Reading data file ...
  orthogonal box = (0 0 0) to (100 100 100)
  2 by 2 by 2 MPI processor grid
  512 atoms
Finding 1-2 1-3 1-4 neighbors ...
  0 = max # of 1-2 neighbors
  0 = max # of 1-3 neighbors
  0 = max # of 1-4 neighbors
  1 = max # of special neighbors
WARNING: Resetting reneighboring criteria during minimization (min.cpp:173)
Setting up minimization ...
Memory usage per processor = 4.05499 Mbytes
Step Temp E_pair E_mol TotEng Press 
       0       560.15    1409.7233            0    2262.9404    451.51896 
     701       560.15   -217.27527            0    635.94182    38.774061 
Loop time of 0.0530315 on 8 procs for 701 steps with 512 atoms

Minimization stats:
  Stopping criterion = energy tolerance
  Energy initial, next-to-last, final = 
         1409.72334813     -217.256630745     -217.275265106
  Force two-norm initial, final = 5034.49 0.337455
  Force max component initial, final = 2457.89 0.147661
  Final line search alpha, max atom move = 0.254892 0.0376377
  Iterations, force evaluations = 701 710

Pair  time (%) = 0.00895002 (16.8768)
Bond  time (%) = 6.02007e-05 (0.113519)
Neigh time (%) = 0.00313869 (5.91854)
Comm  time (%) = 0.0207888 (39.2008)
Outpt time (%) = 0 (0)
Other time (%) = 0.0200938 (37.8903)

Nlocal:    64 ave 74 max 52 min
Histogram: 1 0 0 1 1 2 0 2 0 1
Nghost:    235.125 ave 266 max 224 min
Histogram: 4 0 2 0 0 1 0 0 0 1
Neighs:    316.25 ave 371 max 226 min
Histogram: 1 0 0 1 1 1 0 1 0 3

Total # of neighbors = 2530
Ave neighs/atom = 4.94141
Ave special neighs/atom = 0
Neighbor list builds = 60
Dangerous builds = 0
Setting up run ...
Memory usage per processor = 3.36354 Mbytes
Step Temp E_pair E_mol TotEng Press Volume 
     701       560.15   -217.27527            0    635.94182    38.774061      1000000 
 5000701    561.22882   -334.36486            0    520.49548    889.11917    64428.085 
Loop time of 1335.94 on 8 procs for 5000000 steps with 512 atoms

Pair  time (%) = 728.587 (54.5374)
Bond  time (%) = 0.438 (0.0327859)
Neigh time (%) = 37.2907 (2.79135)
Comm  time (%) = 412.899 (30.907)
Outpt time (%) = 4.22597e-05 (3.16329e-06)
Other time (%) = 156.725 (11.7314)

Nlocal:    64 ave 69 max 61 min
Histogram: 1 3 1 0 0 0 1 1 0 1
Nghost:    1183.5 ave 1205 max 1165 min
Histogram: 1 1 0 2 0 0 2 1 0 1
Neighs:    5144.5 ave 5502 max 4812 min
Histogram: 1 1 1 1 1 0 0 1 0 2

Total # of neighbors = 41156
Ave neighs/atom = 80.3828
Ave special neighs/atom = 0
Neighbor list builds = 109110
Dangerous builds = 12
Setting up run ...
Memory usage per processor = 3.96795 Mbytes
Step Press Volume Temp PotEng KinEng TotEng Enthalpy E_vdwl E_coul E_tail E_long E_bond E_angle E_dihed E_impro E_mol 
10000000    889.11917    64428.085    561.22882   -334.36486    854.86033    520.49548    1355.9274   -334.36486            0   -8.1282805            0            0            0            0            0            0 
10001000    866.44745    66475.465    542.03608    -319.6538    825.62607    505.97227    1345.9727    -319.6538            0   -7.8779373            0            0            0            0            0            0 
10002000    849.25345    65369.118    554.71676   -329.89436    844.94121    515.04685    1324.6754   -329.89436            0   -8.0112683            0            0            0            0            0            0 
10003000    878.07548    64189.675    572.68365   -335.97687    872.30826    536.33138    1358.3335   -335.97687            0   -8.1584701            0            0            0            0            0            0 
10004000    906.48052    65335.199    582.13519   -323.07589     886.7048    563.62891     1427.366   -323.07589            0   -8.0154274            0            0            0            0            0            0 
10005000     815.3851    65700.084    593.04856   -328.28024    903.32797    575.04773    1356.3239   -328.28024            0   -7.9709114            0            0            0            0            0            0 
10006000    938.48708    60622.973    522.04738   -356.36837     795.1794    438.81103    1268.5499   -356.36837            0   -8.6384669            0            0            0            0            0            0 
10007000    998.72454    66341.684    571.10031    -303.4786    869.89653    566.41793    1532.7093    -303.4786            0   -7.8938235            0            0            0            0            0            0 
10008000    872.34944      66062.6    574.44841   -328.51529    874.99633    546.48103    1386.9507   -328.51529            0   -7.9271713            0            0            0            0            0            0 
10009000    844.30015    63164.242    552.29318   -350.03617    841.24962    491.21345    1268.9707   -350.03617            0   -8.2909179            0            0            0            0            0            0 
10010000    820.13419    65863.347    528.43893   -331.06939    804.91498    473.84559     1261.625   -331.06939            0   -7.9511529            0            0            0            0            0            0 
10011000    953.49553    63019.847    574.20035   -337.37904    874.61849    537.23945     1413.578   -337.37904            0   -8.3099146            0            0            0            0            0            0 
10012000    956.89884    62357.367    578.62918   -338.57738    881.36446    542.78708    1413.0083   -338.57738            0   -8.3981984            0            0            0            0            0            0 
10013000    839.49846    62946.308    563.55359   -356.02705    858.40141    502.37436    1273.0401   -356.02705            0   -8.3196229            0            0            0            0            0            0 
10014000    830.01296    64892.235    552.36609    -343.8322    841.36068    497.52848    1283.0417    -343.8322            0    -8.070142            0            0            0            0            0            0 
10015000    919.37432    62840.686    567.81023   -343.98983    864.88509    520.89527    1363.4714   -343.98983            0   -8.3336065            0            0            0            0            0            0 
10016000    889.22666    65667.285     568.9831    -327.9841    866.67161    538.68751     1390.291    -327.9841            0   -7.9748926            0            0            0            0            0            0 
10017000    859.39088    63691.366    546.64876   -344.74818    832.65207    487.90389    1286.1691   -344.74818            0   -8.2223005            0            0            0            0            0            0 
10018000    859.15587     64675.28    563.32076   -338.37706    858.04677    519.66971     1330.045   -338.37706            0   -8.0972135            0            0            0            0            0            0 
10019000     958.1757    63090.147    608.14075   -344.49137    926.31631    581.82494    1463.4473   -344.49137            0    -8.300655            0            0            0            0            0            0 
10020000    853.51325    65373.895     553.4861   -325.64548    843.06667    517.42119    1331.1703   -325.64548            0    -8.010683            0            0            0            0            0            0 
10021000    831.14297    62675.236    545.26375   -350.58491    830.54243    479.95752    1239.6671   -350.58491            0   -8.3556054            0            0            0            0            0            0 
10022000    852.29482     68155.83    572.30742   -310.94984     871.7352    560.78535    1407.9518   -310.94984            0   -7.6837088            0            0            0            0            0            0 
10023000    866.22468    62342.298     536.6916   -352.04091    817.48539    465.44448    1253.0146   -352.04091            0   -8.4002285            0            0            0            0            0            0 
10024000    749.85467    65863.736    563.74352   -346.59606    858.69071    512.09465    1232.3713   -346.59606            0    -7.951106            0            0            0            0            0            0 
10025000    905.02925    62548.981    577.05495   -357.72077    878.96661    521.24583     1346.825   -357.72077            0   -8.3724713            0            0            0            0            0            0 
10026000    822.19595    65489.517    563.52703   -330.97527    858.36096     527.3857    1312.6629   -330.97527            0   -7.9965401            0            0            0            0            0            0 
10027000    740.73044    63091.773    524.79848   -362.00343    799.36986    437.36643    1118.9338   -362.00343            0   -8.3004411            0            0            0            0            0            0 
10028000    832.61052    66249.944    545.92626   -326.25069    831.55156    505.30087    1309.7587   -326.25069            0   -7.9047546            0            0            0            0            0            0 
10029000    908.97241    63600.118    574.21711    -342.0755    874.64402    532.56852    1375.6791    -342.0755            0    -8.234097            0            0            0            0            0            0 
10030000    902.79582    65634.348    554.03123   -329.01734    843.89701    514.87967    1379.0445   -329.01734            0   -7.9788946            0            0            0            0            0            0 
10031000    844.02695    64962.405    576.13911   -334.96883     877.5716    542.60277    1342.2424   -334.96883            0   -8.0614249            0            0            0            0            0            0 
10032000    976.60845    63085.049    541.42723   -325.81575    824.69867    498.88292    1397.3927   -325.81575            0   -8.3013258            0            0            0            0            0            0 
10033000    723.62552    68462.856    570.53372   -327.90056     869.0335    541.13294    1263.6445   -327.90056            0   -7.6492506            0            0            0            0            0            0 
10034000    984.52452     61338.46     546.9692   -344.59795    833.14017    488.54222     1369.257   -344.59795            0   -8.5377029            0            0            0            0            0            0 
10035000    903.15104    64927.619    577.11046   -331.95953    879.05115    547.09161    1402.2878   -331.95953            0   -8.0657439            0            0            0            0            0            0 
10036000    752.47752    64642.783    559.99144   -355.67456    852.97556      497.301    1206.6982   -355.67456            0    -8.101284            0            0            0            0            0            0 
10037000    748.68812    64199.486    533.07418    -353.6499    811.97535    458.32546    1159.3099    -353.6499            0   -8.1572233            0            0            0            0            0            0 
10038000    950.44523    64707.447    526.74297    -313.6795     802.3317     488.6522    1385.5795    -313.6795            0   -8.0931881            0            0            0            0            0            0 
10039000    867.62415    64786.044    544.82499   -329.25275    829.87413    500.62138    1320.3856   -329.25275            0   -8.0833697            0            0            0            0            0            0 
10040000    782.80126    64159.849    512.15262   -341.64523    780.10776    438.46253     1170.934   -341.64523            0   -8.1622628            0            0            0            0            0            0 
10041000    848.77618    65121.372    556.10068   -330.80817    847.04919    516.24102    1322.3479   -330.80817            0   -8.0417462            0            0            0            0            0            0 
10042000    923.52939    63897.693    562.61876   -331.33831    856.97748    525.63917    1386.2599   -331.33831            0   -8.1957505            0            0            0            0            0            0 
10043000    1073.2323    62318.162    588.14746   -332.68463    895.86265    563.17802    1538.5814   -332.68463            0   -8.4034819            0            0            0            0            0            0 
10044000    736.85553    65481.884    551.65863   -343.58792    840.28308    496.69516     1200.382   -343.58792            0   -7.9974722            0            0            0            0            0            0 
10045000    847.80273    64852.454    555.14573   -327.25548     845.5946    518.33913    1320.1965   -327.25548            0   -8.0750922            0            0            0            0            0            0 
10046000     892.8011    64210.932    579.23657   -327.98957    882.28963    554.30006    1390.3642   -327.98957            0   -8.1557693            0            0            0            0            0            0 
10047000    856.29903    67783.412    562.90143   -315.20413    857.40805    542.20392    1388.6996   -315.20413            0   -7.7259248            0            0            0            0            0            0 
10048000    865.38261    61873.759    555.98657   -359.65649    846.87537    487.21889    1268.1101   -359.65649            0   -8.4638392            0            0            0            0            0            0 
10049000    768.16849    67517.467    560.26178   -320.04949    853.38734    533.33785    1289.7326   -320.04949            0   -7.7563565            0            0            0            0            0            0 
10050000    934.88336     63163.61    541.06043   -332.89256    824.13997    491.24741      1352.44   -332.89256            0   -8.2910008            0            0            0            0            0            0 
10051000    953.23119     65657.34    536.19847   -314.81004    816.73425    501.92421    1414.6859   -314.81004            0   -7.9761006            0            0            0            0            0            0 
10052000    895.66257    61148.289    556.15961   -367.40351    847.13894    479.73543    1278.4739   -367.40351            0   -8.5642551            0            0            0            0            0            0 
10053000    884.00177    65852.937    556.33046   -337.54713    847.39918    509.85205    1358.8452   -337.54713            0   -7.9524099            0            0            0            0            0            0 
10054000    945.56459    62604.125    569.16123   -342.65493    866.94293      524.288    1387.6045   -342.65493            0   -8.3650965            0            0            0            0            0            0 
10055000    855.06803    63423.311    580.84282   -349.48953    884.73626    535.24674    1326.1538   -349.48953            0   -8.2570515            0            0            0            0            0            0 
10056000    756.17904    63893.091    570.90716   -361.97547    869.60232    507.62685     1212.246   -361.97547            0   -8.1963407            0            0            0            0            0            0 
10057000    946.29054    65589.318    538.01621   -315.44558    819.50302    504.05744    1409.2344   -315.44558            0   -7.9843725            0            0            0            0            0            0 
10058000    1002.0311    62915.326    599.88067   -339.69023     913.7346    574.04438    1493.4635   -339.69023            0   -8.3237198            0            0            0            0            0            0 
10059000    821.23876    65185.231    571.19946   -342.37322    870.04756    527.67433     1308.393   -342.37322            0    -8.033868            0            0            0            0            0            0 
10060000    725.93726    62589.136     528.6022   -371.60714    805.16367    433.55653    1096.1909   -371.60714            0   -8.3670997            0            0            0            0            0            0 
10061000    754.32835    65911.069    560.55015   -334.81006    853.82658    519.01652    1244.1111   -334.81006            0    -7.945396            0            0            0            0            0            0 
10062000    998.97262    65222.556    528.74514    -301.6306    805.38139    503.75079    1453.9776    -301.6306            0   -8.0292705            0            0            0            0            0            0 
10063000    1016.0364    64638.927    561.60872   -315.55936      855.439    539.87964    1497.6895   -315.55936            0   -8.1017673            0            0            0            0            0            0 
10064000    970.12059    63369.964    590.94186   -334.79246    900.11906    565.32661    1461.8984   -334.79246            0   -8.2640026            0            0            0            0            0            0 
10065000    986.40963    62548.336    565.25177   -332.03301    860.98806    528.95505    1428.7612   -332.03301            0   -8.3725575            0            0            0            0            0            0 
10066000    913.48933    65047.163    544.15251   -326.61985     828.8498    502.22995    1368.8081   -326.61985            0   -8.0509206            0            0            0            0            0            0 
10067000    887.20983    63075.263    540.25686   -346.02981    822.91598    476.88616    1293.0199   -346.02981            0   -8.3026137            0            0            0            0            0            0 
10068000    1059.4009    64207.781    562.41432    -307.7376    856.66608    548.92849    1540.9564    -307.7376            0   -8.1561695            0            0            0            0            0            0 
10069000    794.71786    65825.018    555.32203   -329.07255    845.86314    516.79059    1279.7121   -329.07255            0   -7.9557828            0            0            0            0            0            0 
10070000    962.29382    62283.709    562.99889    -339.5877    857.55649    517.96879    1392.0626    -339.5877            0   -8.4081304            0            0            0            0            0            0 
10071000    850.84913    67540.881    558.15125   -314.76518     850.1726    535.40742    1373.5061   -314.76518            0   -7.7536677            0            0            0            0            0            0 
10072000    924.05071     63916.12    513.49485   -318.35604    782.15223    463.79619     1325.151   -318.35604            0   -8.1933875            0            0            0            0            0            0 
10073000    1033.1964    60194.529     586.8904   -356.53586     893.9479    537.41204    1444.4298   -356.53586            0   -8.6999526            0            0            0            0            0            0 
10074000    845.13637     65209.16    562.71722   -336.51776    857.12746    520.60969    1324.3417   -336.51776            0     -8.03092            0            0            0            0            0            0 
10075000    796.93101     63623.01    548.77613   -355.63388    835.89248    480.25859     1219.712   -355.63388            0   -8.2311343            0            0            0            0            0            0 
10076000    976.49592    62046.978    529.40301   -339.86307    806.38345    466.52038    1350.1433   -339.86307            0   -8.4402104            0            0            0            0            0            0 
10077000    1004.8672    64704.949    596.27457   -323.43679    908.24182    584.80503    1533.0533   -323.43679            0   -8.0935006            0            0            0            0            0            0 
10078000    954.41092    65201.361    573.21111   -315.92214    873.11168    557.18954    1464.7341   -315.92214            0   -8.0318805            0            0            0            0            0            0 
10079000    915.90868    61072.773    521.06793   -346.32421    793.68751     447.3633    1263.1483   -346.32421            0   -8.5748447            0            0            0            0            0            0 
10080000    792.05574    66424.587    557.90133   -334.28528    849.79193    515.50664    1282.7983   -334.28528            0   -7.8839714            0            0            0            0            0            0 
10081000    1000.4202    63778.577    558.19749   -326.24056    850.24303    524.00247    1454.5384   -326.24056            0   -8.2110573            0            0            0            0            0            0 
10082000    968.73787    66281.938    580.70289   -312.47794    884.52312    572.04518    1508.4796   -312.47794            0   -7.9009389            0            0            0            0            0            0 
10083000    1012.8382    60984.343    566.42314    -348.6074    862.77229    514.16489    1414.9773    -348.6074            0   -8.5872786            0            0            0            0            0            0 
10084000    876.04793    64774.175    566.19213   -335.79377    862.42042    526.62665    1354.1984   -335.79377            0   -8.0848509            0            0            0            0            0            0 
10085000    860.77859    64843.027    527.42668     -333.381    803.37312    469.99212    1284.0038     -333.381            0   -8.0762661            0            0            0            0            0            0 
10086000    797.73009    65301.587    531.54793   -333.22293    809.65059    476.42766    1236.1512   -333.22293            0   -8.0195531            0            0            0            0            0            0 
10087000    792.64885    65714.384      544.923   -338.29757    830.02341    491.72583    1251.3822   -338.29757            0   -7.9691769            0            0            0            0            0            0 
10088000    953.24697    63515.518    623.36901   -345.88827     949.5119    603.62363    1486.6246   -345.88827            0   -8.2450646            0            0            0            0            0            0 
10089000    886.57536    61965.862    563.80978   -356.37124    858.79164     502.4204    1303.6261   -356.37124            0    -8.451259            0            0            0            0            0            0 
10090000    837.93779    67460.209    560.61252   -308.48613    853.92159    545.43546    1369.8305   -308.48613            0   -7.7629398            0            0            0            0            0            0 
10091000     920.4207    61927.006    597.25781   -360.03906    909.73948    549.70042    1380.9709   -360.03906            0   -8.4565617            0            0            0            0            0            0 
10092000    789.95745    64996.593    548.85164   -338.09048    836.00749    497.91702    1246.7245   -338.09048            0   -8.0571845            0            0            0            0            0            0 
10093000    946.83194    63675.521    547.17638   -328.79954    833.45574     504.6562    1383.9243   -328.79954            0   -8.2243464            0            0            0            0            0            0 
10094000    981.45711    67185.177     567.4786   -299.33825    864.37997    565.04172    1526.6998   -299.33825            0   -7.7947186            0            0            0            0            0            0 
10095000    839.02513    64658.467    546.83001   -344.87993    832.92816    488.04823      1279.23   -344.87993            0   -8.0993189            0            0            0            0            0            0 
10096000    817.13044    64229.226     548.8334   -345.74112    835.97971    490.23859    1255.6589   -345.74112            0   -8.1534463            0            0            0            0            0            0 
10097000    902.35924    65022.694    565.73613   -324.14754    861.72584    537.57829    1393.2759   -324.14754            0   -8.0539503            0            0            0            0            0            0 
10098000    912.75774    63967.041    568.18375   -327.43255    865.45404    538.02149    1389.5274   -327.43255            0   -8.1868653            0            0            0            0            0            0 
10099000    937.90571    63570.232    596.38208   -342.25244    908.40556    566.15312    1435.6917   -342.25244            0   -8.2379682            0            0            0            0            0            0 
10100000    963.59797    64028.105    560.03235   -319.24122    853.03788    533.79666    1433.5893   -319.24122            0   -8.1790574            0            0            0            0            0            0 
10101000    854.23034    64596.053    534.90904   -328.39231    814.77021     486.3779    1291.1203   -328.39231            0   -8.1071446            0            0            0            0            0            0 
10102000    898.89176    63136.147    569.90781   -348.35999    868.08012    519.72013     1347.398   -348.35999            0   -8.2946072            0            0            0            0            0            0 
10103000    851.28994    67186.168     581.9984   -320.02616    886.49643    566.47027    1400.5993   -320.02616            0   -7.7946036            0            0            0            0            0            0 
10104000    913.46348    61013.943    558.03614   -359.56189    849.99727    490.43538    1303.2587   -359.56189            0   -8.5831126            0            0            0            0            0            0 
10105000    831.11676    65823.357    566.12532   -328.58733    862.31865    533.73133    1331.5753   -328.58733            0   -7.9559835            0            0            0            0            0            0 
10106000    862.38774    64413.569    558.80736   -341.64198    851.17199       509.53    1319.6621   -341.64198            0   -8.1301123            0            0            0            0            0            0 
10107000    1009.8719    61430.305    603.03019   -353.04918    918.53194    565.48276     1470.225   -353.04918            0    -8.524938            0            0            0            0            0            0 
10108000    842.46918    65892.628     586.0487   -333.02421    892.66582    559.64161    1369.2346   -333.02421            0   -7.9476197            0            0            0            0            0            0 
10109000     786.5609    65342.566    549.90725    -344.2181     837.6154     493.3973    1242.9539    -344.2181            0   -8.0145237            0            0            0            0            0            0 
10110000    963.24793    60675.404    567.41679   -353.51408    864.28581    510.77173    1363.1388   -353.51408            0   -8.6310022            0            0            0            0            0            0 
10111000    784.40391     65383.19    563.55154   -341.63986    858.39829    516.75843    1264.7242   -341.63986            0   -8.0095442            0            0            0            0            0            0 
10112000    724.53511    65846.986    512.98983   -342.20339      781.383    439.17961    1134.9585   -342.20339            0   -7.9531286            0            0            0            0            0            0 
10113000    868.34601    64715.795    580.19606   -336.96348    883.75112    546.78764    1366.3443   -336.96348            0   -8.0921442            0            0            0            0            0            0 
10114000    982.01895    66298.655    566.02083   -303.51911     862.1595    558.64039    1508.1524   -303.51911            0   -7.8989467            0            0            0            0            0            0 
10115000    944.44464    62750.884    531.52048   -341.04458    809.60877     468.5642    1332.8796   -341.04458            0   -8.3455325            0            0            0            0            0            0 
10116000     866.1651     66509.37    584.07599   -323.77673    889.66101    565.88428    1406.0393   -323.77673            0   -7.8739213            0            0            0            0            0            0 
10117000    951.16649    65379.374    563.13365   -320.06796    857.76177    537.69381    1444.6226   -320.06796            0   -8.0100116            0            0            0            0            0            0 
10118000    818.30972    64050.613    539.51337   -343.76696     821.7835    478.01654    1242.4099   -343.76696            0   -8.1761832            0            0            0            0            0            0 
10119000    744.93487     64907.06    584.45745   -350.19666    890.24204    540.04539    1245.2029   -350.19666            0   -8.0682987            0            0            0            0            0            0 
10120000    973.72464    60673.518    575.87782   -364.79061     877.1736    512.38299     1373.994   -364.79061            0   -8.6312704            0            0            0            0            0            0 
10121000    836.06749    64427.228    567.96635   -340.90249     865.1229    524.22041    1309.7936   -340.90249            0   -8.1283887            0            0            0            0            0            0 
10122000     880.9223    65297.652    571.74796    -333.1035    870.88302    537.77952    1376.6812    -333.1035            0   -8.0200364            0            0            0            0            0            0 
10123000    895.60032    62042.384    557.25399   -356.44425    848.80589    492.36164    1302.7228   -356.44425            0   -8.4408353            0            0            0            0            0            0 
10124000    903.86196    63940.699    546.69757   -335.71316    832.72643    497.01327    1339.8732   -335.71316            0    -8.190238            0            0            0            0            0            0 
10125000     810.5451    67771.239     538.2218   -315.75211    819.81618    504.06406    1305.1858   -315.75211            0   -7.7273125            0            0            0            0            0            0 
10126000    913.78743    61741.703    562.33881   -355.20923    856.55107    501.34184    1324.1521   -355.20923            0    -8.481942            0            0            0            0            0            0 
10127000    799.20377     63904.64    566.59807   -350.24257    863.03875    512.79618     1257.641   -350.24257            0   -8.1948595            0            0            0            0            0            0 
10128000    884.98186    64426.396    556.52525   -341.21426    847.69588    506.48162    1338.0043   -341.21426            0   -8.1284936            0            0            0            0            0            0 
10129000    810.77136    63826.609    581.48652   -355.66227    885.71674    530.05447    1284.7575   -355.66227            0    -8.204878            0            0            0            0            0            0 
10130000    895.91728    66722.329    561.91935   -304.05848    855.91215    551.85367    1423.6499   -304.05848            0   -7.8487899            0            0            0            0            0            0 
10131000    869.03326    61816.735    557.79347   -351.47416    849.62763    498.15347    1281.6162   -351.47416            0   -8.4716469            0            0            0            0            0            0 
10132000    902.18478    64421.453    564.59774   -327.74879    859.99185    532.24306    1379.8644   -327.74879            0   -8.1291172            0            0            0            0            0            0 
10133000    814.44919    65219.792    538.88197   -332.88636    820.82175    487.93538      1262.61   -332.88636            0   -8.0296107            0            0            0            0            0            0 
10134000    945.07193    63125.765    549.90716    -335.0172    837.61525    502.59805    1372.6545    -335.0172            0   -8.2959714            0            0            0            0            0            0 
10135000    806.97048    65230.186    538.74162   -336.21434    820.60796    484.39363     1252.077   -336.21434            0   -8.0283314            0            0            0            0            0            0 
10136000    976.30736    65714.424    561.64518   -314.41808    855.49454    541.07645    1476.7474   -314.41808            0    -7.969172            0            0            0            0            0            0 
10137000    1109.3068    60785.048    615.39188   -342.03455    937.36118    595.32663    1578.7133   -342.03455            0   -8.6154336            0            0            0            0            0            0 
10138000    959.24748    66031.641    551.64432   -305.93909    840.26128    534.32219    1458.0811   -305.93909            0    -7.930888            0            0            0            0            0            0 
10139000    834.34409    66077.085    534.12321   -327.19135    813.57324    486.38189    1290.4113   -327.19135            0   -7.9254335            0            0            0            0            0            0 
10140000    1054.1577    64786.815    608.48297   -314.55654    926.83756    612.28102    1608.3011   -314.55654            0   -8.0832735            0            0            0            0            0            0 
10141000    931.39709    64898.964    582.77972    -327.6642    887.68654    560.02234    1441.5755    -327.6642            0   -8.0693052            0            0            0            0            0            0 
10142000    903.71777    63476.217    574.12696   -341.41579     874.5067    533.09092    1369.6946   -341.41579            0   -8.2501694            0            0            0            0            0            0 
10143000    846.83082    63791.575    568.06325    -338.5587    865.27049    526.71179    1314.5479    -338.5587            0   -8.2093841            0            0            0            0            0            0 
10144000    918.61608    64520.388    552.34252   -327.44884    841.32478    513.87594    1378.2603   -327.44884            0   -8.1166522            0            0            0            0            0            0 
10145000    923.48284    65629.144    520.86287    -319.3102    793.37517    474.06497    1357.9616    -319.3102            0   -7.9795273            0            0            0            0            0            0 
10146000    920.00759    62014.174    534.96749   -350.47587    814.85924    464.38337    1296.4503   -350.47587            0    -8.444675            0            0            0            0            0            0 
10147000     755.1016    67276.424    576.27879   -346.78283    877.78436    531.00153    1271.8752   -346.78283            0   -7.7841466            0            0            0            0            0            0 
10148000    898.12939    63393.119    570.70268   -348.77608    869.29087    520.51478    1350.8566   -348.77608            0   -8.2609841            0            0            0            0            0            0 
10149000     817.4603    65065.036    552.23474   -340.16131    841.16061    500.99929    1276.6929   -340.16131            0   -8.0487091            0            0            0            0            0            0 
10150000    873.73942    66522.546     575.2928   -322.24403    876.28251    554.03848    1401.7082   -322.24403            0   -7.8723618            0            0            0            0            0            0 
10151000    833.98527    64767.127    571.99182   -353.33646    871.25448    517.91802    1305.6689   -353.33646            0   -8.0857307            0            0            0            0            0            0 
10152000    1062.4165    64654.429    589.83164   -312.26993    898.42797    586.15804    1587.9303   -312.26993            0   -8.0998248            0            0            0            0            0            0 
10153000    935.62749    64374.576    543.77751    -325.1622     828.2786     503.1164    1381.5183    -325.1622            0   -8.1350368            0            0            0            0            0            0 
10154000    923.40733    62618.238    576.40417   -351.19065    877.97534    526.78469    1370.0613   -351.19065            0   -8.3632111            0            0            0            0            0            0 
10155000    780.44374    69495.938    587.78271   -324.06407    895.30706    571.24298    1362.2438   -324.06407            0   -7.5355418            0            0            0            0            0            0 
10156000    873.97136    66314.356    572.34448   -318.89127    871.79164    552.90037    1398.1416   -318.89127            0   -7.8970765            0            0            0            0            0            0 
10157000    1010.7631    65069.308     589.7947   -315.13153    898.37171    583.24018    1542.4231   -315.13153            0   -8.0481806            0            0            0            0            0            0 
10158000    908.12403    64142.466     545.8208   -328.58211    831.39094    502.80883    1352.3153   -328.58211            0   -8.1644748            0            0            0            0            0            0 
10159000    760.28546     63380.55     544.0757   -359.60499    828.73281    469.12782    1171.8903   -359.60499            0   -8.2626223            0            0            0            0            0            0 
10160000    931.06294    64810.016    550.34762   -321.37786    838.28615     516.9083    1396.9374   -321.37786            0   -8.0803799            0            0            0            0            0            0 
10161000    1036.7765    62034.512    608.38229   -341.46989    926.68422    585.21433    1523.1962   -341.46989            0   -8.4419064            0            0            0            0            0            0 
10162000    797.75271    66669.776    557.01721    -327.0855    848.44524    521.35975    1297.0229    -327.0855            0   -7.8549768            0            0            0            0            0            0 
10163000    905.63122    63026.239    565.48064   -339.38405    861.33668    521.95263    1354.3844   -339.38405            0   -8.3090717            0            0            0            0            0            0 
10164000    981.04835     64428.92    575.20493   -314.50805    876.14866    561.64061    1483.4628   -314.50805            0   -8.1281752            0            0            0            0            0            0 
10165000     878.1385     62356.49    566.86133   -358.06867    863.43974    505.37107     1303.955   -358.06867            0   -8.3983166            0            0            0            0            0            0 
10166000    799.79235    64787.484    557.64451   -349.60684    849.40073    499.79389    1255.4849   -349.60684            0   -8.0831901            0            0            0            0            0            0 
10167000    799.53512    65521.179    538.24632   -334.73013    819.85352     485.1234    1249.1265   -334.73013            0   -7.9926758            0            0            0            0            0            0 
10168000    820.52215    62967.388    563.78263   -358.46543    858.75028    500.28486    1253.7825   -358.46543            0   -8.3168376            0            0            0            0            0            0 
10169000    919.73818    64230.177    568.32124   -336.47685    865.66347    529.18662    1390.7341   -336.47685            0   -8.1533255            0            0            0            0            0            0 
10170000    868.21631    64762.992    555.07289   -335.85919    845.48366    509.62447    1329.6564   -335.85919            0   -8.0862469            0            0            0            0            0            0 
10171000    859.35879    65662.414    570.47898   -334.34358    868.95012    534.60654    1357.5448   -334.34358            0   -7.9754842            0            0            0            0            0            0 
10172000    982.43572    64952.858    607.48398     -328.661    925.31592    596.65492    1527.2876     -328.661            0   -8.0626097            0            0            0            0            0            0 
10173000    978.91248        64298    556.69318   -318.03631    847.95167    529.91536    1447.8615   -318.03631            0   -8.1447252            0            0            0            0            0            0 
10174000     902.5381    65643.709    578.75472   -323.21841    881.55568    558.33728    1422.3787   -323.21841            0   -7.9777567            0            0            0            0            0            0 
10175000    869.63079    67323.807      575.901   -319.71246    877.20891    557.49645    1411.3423   -319.71246            0   -7.7786681            0            0            0            0            0            0 
10176000    923.73518    63556.242    543.04889   -334.05332    827.16877    493.11545     1349.328   -334.05332            0   -8.2397814            0            0            0            0            0            0 
10177000    919.65274    64395.601    531.40218   -323.01204    809.42858    486.41654    1350.1027   -323.01204            0   -8.1323808            0            0            0            0            0            0 
10178000    999.30727    62730.627    572.64173   -334.71371    872.24441     537.5307    1451.7588   -334.71371            0   -8.3482275            0            0            0            0            0            0 
10179000    784.33098    64090.664    571.36576   -348.44246    870.30086    521.85841    1254.9699   -348.44246            0   -8.1710738            0            0            0            0            0            0 
10180000    822.24134    65773.547     544.4952   -330.22146    829.37178    499.15032    1287.8769   -330.22146            0   -7.9620085            0            0            0            0            0            0 
10181000     882.5137    61786.669    549.07235   -360.89233    836.34367    475.45134    1270.6802   -360.89233            0   -8.4757692            0            0            0            0            0            0 
10182000    945.05125    65117.923    580.55719   -327.44088    884.30119    556.86031    1454.3548   -327.44088            0   -8.0421722            0            0            0            0            0            0 
10183000    952.27858    65136.656     581.9156    -323.2293    886.37031    563.14101    1467.7593    -323.2293            0   -8.0398592            0            0            0            0            0            0 
10184000    864.26855    60424.224    553.53852   -371.38325    843.14651    471.76326    1233.3786   -371.38325            0   -8.6668807            0            0            0            0            0            0 
10185000    813.18789    66157.257     596.2377   -344.11397    908.18565    564.07169    1348.6644   -344.11397            0   -7.9158292            0            0            0            0            0            0 
10186000    1014.9077    63278.351    553.10176   -323.99623    842.48125    518.48502    1455.0924   -323.99623            0    -8.275967            0            0            0            0            0            0 
10187000    850.74092    62885.058    557.92228   -355.42674    849.82384     494.3971    1274.6236   -355.42674            0   -8.3277262            0            0            0            0            0            0 
10188000    883.43596    63419.705     548.5761   -344.94377    835.58779    490.64402     1307.744   -344.94377            0    -8.257521            0            0            0            0            0            0 
10189000    859.34126    64771.829    539.67906   -334.63733    822.03587    487.39854    1299.1587   -334.63733            0   -8.0851437            0            0            0            0            0            0 
10190000    939.67701     65303.16    581.10041   -323.01938    885.12862    562.10924    1457.0385   -323.01938            0     -8.01936            0            0            0            0            0            0 
10191000    1068.3846    63101.166    571.75302   -334.17829    870.89073    536.71245    1519.9102   -334.17829            0   -8.2992055            0            0            0            0            0            0 
10192000    1017.0296    63310.246    591.48555   -328.86728    900.94721    572.07993    1511.1186   -328.86728            0   -8.2717977            0            0            0            0            0            0 
10193000    952.56065    61001.085    553.67848   -349.88756    843.35971    493.47215    1340.9065   -349.88756            0   -8.5849219            0            0            0            0            0            0 
10194000    816.11383     65983.92    551.34218   -329.14081    839.80106    510.66025     1296.013   -329.14081            0   -7.9366237            0            0            0            0            0            0 
10195000    969.42201    62131.331    564.91518   -337.44832    860.47538    523.02706    1401.4414   -337.44832            0   -8.4287514            0            0            0            0            0            0 
10196000    925.59045    64134.809    563.26349   -324.55713    857.95954    533.40241    1399.1446   -324.55713            0   -8.1654495            0            0            0            0            0            0 
10197000    864.83268    67211.477    582.48566   -326.13732    887.23862     561.1013    1408.8193   -326.13732            0   -7.7916685            0            0            0            0            0            0 
10198000    882.45644    64700.365    547.18571   -339.12613    833.46995    494.34382    1327.0195   -339.12613            0   -8.0940741            0            0            0            0            0            0 
10199000    1026.3733    61829.971     574.9737   -345.56629    875.79645    530.23017    1455.7384   -345.56629            0   -8.4698333            0            0            0            0            0            0 
10200000    943.74923    62643.852    589.27384   -348.26228    897.57834    549.31606    1411.5219   -348.26228            0   -8.3597916            0            0            0            0            0            0 
10201000    927.15722    65267.548    569.71839   -324.21361    867.79159    543.57798    1426.1021   -324.21361            0   -8.0237355            0            0            0            0            0            0 
10202000    827.11682    63808.675    546.51901    -349.4676    832.45444    482.98685    1252.6886    -349.4676            0   -8.2071842            0            0            0            0            0            0 
10203000    939.97224     60426.93    569.78413   -366.77879    867.89174    501.11295    1329.4774   -366.77879            0   -8.6664926            0            0            0            0            0            0 
10204000    889.57761    65631.422    533.85439   -320.54262    813.16377    492.62115    1344.0955   -320.54262            0   -7.9792503            0            0            0            0            0            0 
10205000    825.88579    65227.786    552.74426   -330.74196     841.9367    511.19474    1296.8437   -330.74196            0   -8.0286267            0            0            0            0            0            0 
10206000    912.18053    63354.636    543.91126    -333.7848    828.48233    494.69754     1337.518    -333.7848            0   -8.2660019            0            0            0            0            0            0 
10207000    679.43708    66983.269    553.73672   -353.41067    843.44841    490.03774    1153.7678   -353.41067            0   -7.8182142            0            0            0            0            0            0 
10208000    1027.2766    59440.196    562.17012      -362.35    856.29411    493.94411    1384.4638      -362.35            0   -8.8103603            0            0            0            0            0            0 
10209000    895.11845    64665.936    536.00369   -322.89616    816.43757    493.54142    1337.7154   -322.89616            0   -8.0983835            0            0            0            0            0            0 
10210000    885.12047    63789.427    566.09732   -341.28499      862.276    520.99101    1344.4216   -341.28499            0   -8.2096606            0            0            0            0            0            0 
10211000    950.05657    64791.309    605.86463   -333.13984    922.84932    589.70948     1487.432   -333.13984            0   -8.0827128            0            0            0            0            0            0 
10212000    913.35805    64588.876    546.80014   -323.14688    832.88266    509.73578    1370.0848   -323.14688            0   -8.1080455            0            0            0            0            0            0 
10213000    806.32712    64208.127     526.9197   -341.91715    802.60089    460.68374    1215.7363   -341.91715            0   -8.1561255            0            0            0            0            0            0 
10214000    769.07416    66750.447    530.39583   -327.73702    807.89572     480.1587    1228.8422   -327.73702            0   -7.8454838            0            0            0            0            0            0 
10215000       967.95    64399.688    528.24471   -321.47371    804.61914    483.14543    1392.2473   -321.47371            0   -8.1318647            0            0            0            0            0            0 
10216000    794.16491    65786.436    520.08854   -326.89393    792.19572    465.30179    1227.2456   -326.89393            0   -7.9604486            0            0            0            0            0            0 
10217000    847.63267     64613.27    574.91855    -345.2403    875.71245    530.47215    1329.2119    -345.2403            0   -8.1049844            0            0            0            0            0            0 
10218000    764.07084    65908.122    563.46005   -341.60623    858.25893     516.6527    1251.0794   -341.60623            0   -7.9457513            0            0            0            0            0            0 
10219000     935.7179    63612.492    553.11538   -340.27029    842.50199     502.2317    1370.3187   -340.27029            0   -8.2324954            0            0            0            0            0            0 
10220000    945.06369     65268.63    542.88576   -306.64065    826.92029    520.27964    1419.8631   -306.64065            0   -8.0236026            0            0            0            0            0            0 
10221000    898.56557    64802.058    582.13802   -337.19567    886.70911    549.51344    1398.7222   -337.19567            0   -8.0813721            0            0            0            0            0            0 
10222000     1047.998    60034.675    557.31373   -348.46301    848.89689    500.43388    1418.0024   -348.46301            0   -8.7231179            0            0            0            0            0            0 
10223000    844.75002    65664.541    530.93893   -321.64588    808.72295    487.07707    1296.0519   -321.64588            0   -7.9752258            0            0            0            0            0            0 
10224000     890.4215    64839.017    526.68315    -326.6567    802.24057    475.58387    1317.5758    -326.6567            0   -8.0767656            0            0            0            0            0            0 
10225000    897.24351    63506.514     553.0568   -348.34398    842.41276    494.06878    1325.0754   -348.34398            0   -8.2462335            0            0            0            0            0            0 
10226000    868.44514    64302.786    529.12021    -330.0342    805.95269     475.9185    1290.3378    -330.0342            0   -8.1441191            0            0            0            0            0            0 
10227000    905.43196    63524.518    552.27871   -340.32232    841.22758    500.90527    1339.7336   -340.32232            0   -8.2438964            0            0            0            0            0            0 
10228000    1032.4479    62269.732    576.08905   -334.84368    877.49535    542.65167    1480.2591   -334.84368            0   -8.4100177            0            0            0            0            0            0 
10229000    767.43541    65715.934    535.78946   -338.90132    816.11125    477.20993    1212.7196   -338.90132            0   -7.9689888            0            0            0            0            0            0 
10230000    862.88969    66005.109    536.06181   -327.84724     816.5261    488.67886     1319.311   -327.84724            0    -7.934076            0            0            0            0            0            0 
10231000    848.29619    62413.808    566.45812   -361.33805    862.82557    501.48752    1273.6418   -361.33805            0    -8.390604            0            0            0            0            0            0 
10232000    892.19577    63735.914    559.69678   -333.34798    852.52675    519.17877    1348.4952   -333.34798            0   -8.2165534            0            0            0            0            0            0 
10233000    980.75013    63862.658    582.25583   -339.95372    886.88855    546.93483    1460.3774   -339.95372            0   -8.2002466            0            0            0            0            0            0 
10234000    838.41525    65406.323    553.96578   -340.23581    843.79731     503.5615    1303.3125   -340.23581            0   -8.0067113            0            0            0            0            0            0 
10235000    817.63587    65810.535    565.87736   -336.17063    861.94096    525.77033    1310.5202   -336.17063            0   -7.9575336            0            0            0            0            0            0 
10236000    968.28424    63853.461    566.01075   -319.06296    862.14414    543.08118    1444.7835   -319.06296            0   -8.2014277            0            0            0            0            0            0 
10237000    898.08753    66807.203    585.20444   -318.79786    891.37985    572.58199    1447.6017   -318.79786            0   -7.8388186            0            0            0            0            0            0 
10238000    836.75926    63996.671    572.44454   -344.25989    871.94405    527.68417    1308.6532   -344.25989            0   -8.1830748            0            0            0            0            0            0 
10239000    869.23565    62360.432    572.85033   -351.89495    872.56215     520.6672    1311.2048   -351.89495            0   -8.3977857            0            0            0            0            0            0 
10240000    832.10646    66081.175    554.37629   -329.24517     844.4226    515.17743    1317.1002   -329.24517            0    -7.924943            0            0            0            0            0            0 
10241000    832.79884    62196.654     538.1261   -358.91448    819.67042    460.75594    1216.1665   -358.91448            0    -8.419899            0            0            0            0            0            0 
10242000    915.44969    66989.619    598.51293   -324.27879    911.65127    587.37247    1481.7438   -324.27879            0   -7.8174732            0            0            0            0            0            0 
10243000    960.29318    62972.303    576.47759   -335.11312    878.08718    542.97406    1424.8943   -335.11312            0   -8.3161885            0            0            0            0            0            0 
10244000     904.2713    63671.096    568.62523   -338.19551    866.12651      527.931    1367.6171   -338.19551            0   -8.2249181            0            0            0            0            0            0 
10245000     866.3167     65012.92    549.31735   -327.01311    836.71686    509.70375    1331.0991   -327.01311            0   -8.0551611            0            0            0            0            0            0 
10246000    918.38631    64442.693    563.95279   -330.56444    859.00946    528.44502    1391.5726   -330.56444            0   -8.1264379            0            0            0            0            0            0 
10247000    863.20146    64860.753    512.36731   -318.87102    780.43478    461.56376    1278.0898   -318.87102            0    -8.074059            0            0            0            0            0            0 
10248000     942.2655    64761.669    543.47784   -324.94512    827.82215    502.87703    1392.8303   -324.94512            0   -8.0864121            0            0            0            0            0            0 
10249000    902.37196    62533.612    596.70129   -351.52501    908.89179    557.36678    1380.3197   -351.52501            0    -8.374529            0            0            0            0            0            0 
10250000    796.03042    64248.613     576.0823   -357.50851    877.48506    519.97655    1265.8572   -357.50851            0    -8.150986            0            0            0            0            0            0 
10251000    767.03146     66761.16    562.97094   -331.23974    857.51392    526.27419     1273.089   -331.23974            0   -7.8442247            0            0            0            0            0            0 
10252000    997.85676    61626.111     555.7307    -347.8206    846.48563    498.66502    1395.4924    -347.8206            0   -8.4978516            0            0            0            0            0            0 
10253000      804.636    65789.319    600.06773    -335.8421    914.01952    578.17743    1350.2013    -335.8421            0   -7.9600998            0            0            0            0            0            0 
10254000    932.44955    62320.972    593.77118   -361.67335    904.42865     542.7553     1390.247   -361.67335            0    -8.403103            0            0            0            0            0            0 
10255000    815.06971    62905.134    542.04249   -358.80339    825.63584    466.83245     1214.583   -358.80339            0   -8.3250685            0            0            0            0            0            0 
10256000    803.71051     64823.27    519.60834   -334.29805    791.46427    457.16622    1216.9788   -334.29805            0   -8.0787277            0            0            0            0            0            0 
10257000    1015.9873    60109.829    563.49484   -355.78821    858.31192    502.52371     1393.179   -355.78821            0   -8.7122115            0            0            0            0            0            0 
10258000    841.03397    68718.498    563.31709   -301.12884    858.04118    556.91234    1399.7872   -301.12884            0   -7.6207944            0            0            0            0            0            0 
10259000    798.24404    66954.347    541.54114    -332.5794    824.87217    492.29278    1271.7465    -332.5794            0   -7.8215914            0            0            0            0            0            0 
10260000    948.10161    62742.621     584.3985   -344.84984    890.15225    545.30241    1412.8503   -344.84984            0   -8.3466316            0            0            0            0            0            0 
10261000    922.59175    63607.941    575.48263   -342.81787    876.57165    533.75378    1389.6021   -342.81787            0   -8.2330843            0            0            0            0            0            0 
10262000    986.49044    62884.685    546.57693   -334.52252    832.54266    498.02014     1402.739   -334.52252            0   -8.3277757            0            0            0            0            0            0 
10263000     907.2754    64990.578    562.94922   -335.48857    857.48084    521.99226    1381.9269   -335.48857            0   -8.0579302            0            0            0            0            0            0 
10264000    866.19241    62857.953    536.32617   -348.90088    816.92877    468.02789    1262.0827   -348.90088            0   -8.3313172            0            0            0            0            0            0 
10265000    897.01149     64476.18    547.42152   -332.30056    833.82914    501.52859    1345.0055   -332.30056            0   -8.1222173            0            0            0            0            0            0 
10266000    856.49462    67236.345     572.3273    -320.4384    871.76547    551.32707    1391.1827    -320.4384            0   -7.7887867            0            0            0            0            0            0 
10267000    961.82584    61941.863    582.07168   -342.74317    886.60805    543.86488    1412.7385   -342.74317            0   -8.4545334            0            0            0            0            0            0 
10268000    939.31892      65822.9    566.67821    -320.8673    863.16081     542.2935    1444.0016    -320.8673            0   -7.9560388            0            0            0            0            0            0 
10269000    1051.5959    61975.517    611.11986   -345.54614    930.85407    585.30793    1535.7922   -345.54614            0   -8.4499424            0            0            0            0            0            0 
10270000    864.75236    66514.469    566.46107   -320.95115    862.83006    541.87891    1380.7279   -320.95115            0   -7.8733177            0            0            0            0            0            0 
10271000    837.37108     64890.35    540.06847   -335.67139    822.62901    486.95762    1279.4114   -335.67139            0   -8.0703763            0            0            0            0            0            0 
10272000    935.61574    64048.592    537.36134   -331.15779    818.50553    487.34774    1361.2905   -331.15779            0   -8.1764412            0            0            0            0            0            0 
10273000    733.44783    67612.775    573.57962   -328.27929      873.673    545.39371    1268.6195   -328.27929            0    -7.745423            0            0            0            0            0            0 
10274000    946.69184    61152.926    586.16612   -364.48025    892.84468    528.36443    1372.6741   -364.48025            0   -8.5636057            0            0            0            0            0            0 
10275000    764.87203    66142.023    591.10315   -338.52299    900.36474    561.84174    1299.6477   -338.52299            0   -7.9176523            0            0            0            0            0            0 
10276000    925.50574    62908.512    584.53277   -346.48898    890.35677    543.86778    1392.9787   -346.48898            0   -8.3246214            0            0            0            0            0            0 
10277000    812.87499    66082.616    572.26792   -339.83945    871.67502    531.83557    1315.2415   -339.83945            0   -7.9247702            0            0            0            0            0            0 
10278000    786.14504    65142.381    553.15274   -339.00469     842.5589    503.55421    1250.4194   -339.00469            0   -8.0391527            0            0            0            0            0            0 
10279000    899.10243    60130.108    581.05528   -375.30752    885.05988    509.75236    1298.2076   -375.30752            0   -8.7092733            0            0            0            0            0            0 
10280000    926.09139    64438.026    548.04543    -319.4396    834.77947    515.33987    1385.6458    -319.4396            0   -8.1270265            0            0            0            0            0            0 
10281000    819.91086    66109.323    527.97131   -330.86194     804.2027    473.34075    1263.8469   -330.86194            0   -7.9215687            0            0            0            0            0            0 
10282000    864.07258    63063.441    528.91798   -350.74468    805.64466    454.89997     1249.601   -350.74468            0   -8.3041701            0            0            0            0            0            0 
10283000    936.70186    63560.893    564.67428   -330.72184    860.10844     529.3866    1397.6815   -330.72184            0   -8.2391786            0            0            0            0            0            0 
10284000    904.34147    65092.355    566.87078   -322.48265    863.45414    540.97148    1399.4676   -322.48265            0   -8.0453311            0            0            0            0            0            0 
10285000    861.24095    66737.872    568.63232   -330.86404    866.13729    535.27326     1373.522   -330.86404            0    -7.846962            0            0            0            0            0            0 
10286000    953.78657    62239.571    588.84272    -346.1346    896.92166    550.78706    1416.5394    -346.1346            0   -8.4140931            0            0            0            0            0            0 
10287000    834.30373    63123.975    561.02348   -353.22894    854.54756    501.31861    1269.3773   -353.22894            0   -8.2962068            0            0            0            0            0            0 
10288000    896.21735    64797.023    561.05051    -330.7243    854.58873    523.86443    1370.7881    -330.7243            0   -8.0820001            0            0            0            0            0            0 
10289000    1031.9424    61769.831    576.60957   -339.19797    878.28821    539.09024    1468.7151   -339.19797            0   -8.4780796            0            0            0            0            0            0 
10290000    868.53043    64475.526    550.24067   -334.56025    838.12326      503.563    1320.2503   -334.56025            0   -8.1222996            0            0            0            0            0            0 
10291000     849.1286    65420.882    566.62329   -332.85988    863.07716    530.21729    1340.3679   -332.85988            0   -8.0049295            0            0            0            0            0            0 
10292000    1047.9348    64142.531    594.13893   -315.21986    904.98881    589.76895    1570.0627   -315.21986            0   -8.1644665            0            0            0            0            0            0 
10293000    927.26953    60781.108    521.70117   -354.18095    794.65206    440.47111    1262.4308   -354.18095            0    -8.615992            0            0            0            0            0            0 
10294000    756.51538    65789.537    537.08395   -332.67108    818.08301    485.41194     1211.268   -332.67108            0   -7.9600734            0            0            0            0            0            0 
10295000    828.95656    64201.745    547.74169   -335.65013    834.31682    498.66669    1274.8325   -335.65013            0   -8.1569363            0            0            0            0            0            0 
10296000    798.25315    64148.377    531.47485   -342.14497    809.53927    467.39431    1214.1907   -342.14497            0   -8.1637224            0            0            0            0            0            0 
10297000    969.88359    62712.889    554.28641    -340.3555    844.28569     503.9302    1390.9888    -340.3555            0   -8.3505888            0            0            0            0            0            0 
10298000     1117.924    64520.121    589.07853     -300.113    897.28084    597.16784    1649.0894     -300.113            0   -8.1166858            0            0            0            0            0            0 
10299000    960.53122    63568.612    574.24434   -332.42095     874.6855    542.26455    1432.7567   -332.42095            0   -8.2381781            0            0            0            0            0            0 
10300000    908.56449    64611.339    575.39222    -336.6476    876.43394    539.78633    1395.9177    -336.6476            0   -8.1052267            0            0            0            0            0            0 
10301000    845.17032    64357.574    568.24252   -333.03716    865.54356     532.5064    1325.7741   -333.03716            0   -8.1371859            0            0            0            0            0            0 
10302000    995.07454    64357.114    555.30936   -316.21656    845.84386     529.6273    1463.5868   -316.21656            0   -8.1372441            0            0            0            0            0            0 
10303000    932.74477    63862.726    544.74384   -329.83774    829.75051    499.91277    1368.6455   -329.83774            0   -8.2002379            0            0            0            0            0            0 
10304000     883.3905    65613.055    546.34147   -321.31612    832.18401    510.86789    1356.1835   -321.31612            0   -7.9814839            0            0            0            0            0            0 
10305000     836.0795    64264.241    565.20602   -341.44955    860.91838    519.46883     1303.066   -341.44955            0   -8.1490038            0            0            0            0            0            0 
10306000     865.6135    64494.346    558.21648   -344.70743    850.27196    505.56454    1319.7467   -344.70743            0   -8.1199295            0            0            0            0            0            0 
10307000    945.02925     63474.08    590.35409   -343.98442    899.22377    555.23935     1430.057   -343.98442            0   -8.2504472            0            0            0            0            0            0 
10308000    872.77718    64828.386    587.22555   -338.11374     894.4584    556.34466    1381.5167   -338.11374            0   -8.0780901            0            0            0            0            0            0 
10309000    882.98939    64091.152    531.98722   -331.22385     810.3197    479.09586    1304.4293   -331.22385            0   -8.1710116            0            0            0            0            0            0 
10310000    796.76811    63456.527    539.90998    -353.8295     822.3876     468.5581    1205.9258    -353.8295            0   -8.2527294            0            0            0            0            0            0 
10311000    855.96327    63992.215    555.57834   -339.25833    846.25355    506.99523    1305.8322   -339.25833            0   -8.1836446            0            0            0            0            0            0 
10312000    815.38751    66369.192    574.22418   -330.38311    874.65478    544.27168    1333.5069   -330.38311            0   -7.8905517            0            0            0            0            0            0 
10313000    953.75338    61589.206    534.84946    -358.2469    814.67945    456.43255    1313.1085    -358.2469            0   -8.5029436            0            0            0            0            0            0 
10314000    752.65008    65670.172    513.92447   -335.54146    782.80664    447.26518    1168.1023   -335.54146            0    -7.974542            0            0            0            0            0            0 
10315000    812.97633    63856.887    575.36951   -350.68292    876.39935    525.71643    1282.8309   -350.68292            0   -8.2009877            0            0            0            0            0            0 
10316000    1011.7337    61973.312    576.10959   -341.53906    877.52663    535.98757    1450.4099   -341.53906            0   -8.4502429            0            0            0            0            0            0 
10317000    775.02434    66891.408    541.63972   -329.88416    825.02234    495.13818    1251.2074   -329.88416            0   -7.8289508            0            0            0            0            0            0 
10318000    994.11772    59399.097    538.92279   -358.62944    820.88392    462.25448    1323.4337   -358.62944            0   -8.8164563            0            0            0            0            0            0 
10319000    989.56215    64134.508    571.83266   -323.82809    871.01203    547.18395    1472.7571   -323.82809            0   -8.1654878            0            0            0            0            0            0 
10320000    853.49416    61212.329    573.68463   -371.67691    873.83295    502.15603    1264.0865   -371.67691            0   -8.5552952            0            0            0            0            0            0 
10321000    786.37355    63827.044    546.88552   -355.10957     833.0127    477.90314    1209.9005   -355.10957            0   -8.2048221            0            0            0            0            0            0 
10322000    725.40457    65977.941    548.96144   -342.78461    836.17474    493.39013    1191.3894   -342.78461            0    -7.937343            0            0            0            0            0            0 
10323000    938.26558    62717.917    564.65894   -348.93557    860.08507    511.14951     1369.359   -348.93557            0   -8.3499193            0            0            0            0            0            0 
10324000    999.81049     62996.23    591.07994   -340.55419    900.32937    559.77518    1478.3365   -340.55419            0   -8.3130299            0            0            0            0            0            0 
10325000    887.02438    64713.341     532.0151   -333.88503    810.36218    476.47715     1313.631   -333.88503            0   -8.0924511            0            0            0            0            0            0 
10326000    938.68702    65059.492    560.56134   -323.47687    853.84363    530.36676    1421.0174   -323.47687            0    -8.049395            0            0            0            0            0            0 
10327000    876.54586    63179.193    564.99748   -353.60535    860.60074    506.99539     1314.648   -353.60535            0   -8.2889559            0            0            0            0            0            0 
10328000    856.41322    64869.805    550.42211   -332.11198    838.39962    506.28764    1316.5056   -332.11198            0   -8.0729324            0            0            0            0            0            0 
10329000    1062.1918    62904.385    589.69348    -329.9389    898.21753    568.27863    1542.7291    -329.9389            0   -8.3251676            0            0            0            0            0            0 
10330000    889.41317    66908.428    556.59423   -315.99222    847.80095    531.80873    1399.6899   -315.99222            0   -7.8269593            0            0            0            0            0            0 
10331000    871.92559    61044.412    519.35151   -362.16583    791.07308    428.90724    1205.1565   -362.16583            0   -8.5788286            0            0            0            0            0            0 
10332000    915.50509    65676.855    591.36433   -329.78878    900.76256    570.97378    1447.8716   -329.78878            0   -7.9737305            0            0            0            0            0            0 
10333000    901.31361    65538.633    579.10518   -330.50723    882.08949    551.58227    1413.0702   -330.50723            0   -7.9905472            0            0            0            0            0            0 
10334000    976.26478    64060.659      563.941   -319.74178    858.99151    539.24974    1451.3339   -319.74178            0    -8.174901            0            0            0            0            0            0 
10335000    770.38513    66759.782    536.76047   -330.44836     817.5903    487.14194    1237.2066   -330.44836            0   -7.8443867            0            0            0            0            0            0 
10336000    823.98087    64605.713    574.26569   -338.49429    874.71801    536.22372    1312.5851   -338.49429            0   -8.1059325            0            0            0            0            0            0 
10337000     825.2176    68741.794    567.34053   -304.74343    864.16966    559.42622    1386.7304   -304.74343            0   -7.6182118            0            0            0            0            0            0 
10338000    902.33756    62292.039    558.06154   -349.33363    850.03595    500.70232    1320.4449   -349.33363            0    -8.407006            0            0            0            0            0            0 
10339000    846.41274    62631.668    561.86025    -350.4976    855.82212    505.32452    1278.4537    -350.4976            0   -8.3614178            0            0            0            0            0            0 
10340000    836.70063    63823.414    573.26023   -352.56822    873.18651    520.61828    1299.4184   -352.56822            0   -8.2052888            0            0            0            0            0            0 
10341000    1033.9359    62353.915    561.83123   -333.29728    855.77792    522.48063    1462.7088   -333.29728            0   -8.3986634            0            0            0            0            0            0 
10342000    896.77068     67810.92    553.12717   -310.00329    842.51996    532.51667    1419.3805   -310.00329            0   -7.7227908            0            0            0            0            0            0 
10343000    935.62971    62996.775    577.08958   -343.20852    879.01934    535.81082    1395.4144   -343.20852            0    -8.312958            0            0            0            0            0            0 
10344000    881.98557    63706.107    553.58583   -333.79215    843.21858    509.42643    1328.8688   -333.79215            0   -8.2203978            0            0            0            0            0            0 
10345000    825.99471    64952.624    530.51758   -329.02242    808.08116    479.05873    1261.4966   -329.02242            0   -8.0626388            0            0            0            0            0            0 
10346000    860.05583    64926.872    566.74073   -341.36115    863.25604    521.89489    1336.2747   -341.36115            0   -8.0658366            0            0            0            0            0            0 
10347000    975.35609    64929.825    537.96807   -305.13152    819.42971    514.29819    1437.8969   -305.13152            0   -8.0654698            0            0            0            0            0            0 
10348000    911.77084    64505.898    556.05745   -322.80367    846.98333    524.17967    1381.9302   -322.80367            0   -8.1184753            0            0            0            0            0            0 
10349000    971.48618    64533.924    559.97074   -323.16466    852.94403    529.77937    1444.1044   -323.16466            0   -8.1149497            0            0            0            0            0            0 
10350000    812.26148    64566.168    594.79137   -347.94488    905.98261    558.03774    1322.8886   -347.94488            0   -8.1108971            0            0            0            0            0            0 
10351000     955.8723    60775.568    545.21561   -343.69852    830.46911    486.77058    1334.0073   -343.69852            0   -8.6167775            0            0            0            0            0            0 
10352000    782.92074    65664.724    580.83344   -349.03396    884.72197    535.68801    1285.4541   -349.03396            0   -7.9752036            0            0            0            0            0            0 
10353000    1000.0736     62244.86     570.6822   -336.38815    869.25966    532.87152    1440.7157   -336.38815            0   -8.4133782            0            0            0            0            0            0 
[...]
14939000    897.27363    62116.424    554.58789   -360.70641    844.74491     484.0385    1296.8826   -360.70641            0   -8.4307742            0            0            0            0            0            0 
14940000     813.1834    64629.882    535.26621   -340.99259    815.31425    474.32166    1240.7962   -340.99259            0   -8.1029011            0            0            0            0            0            0 
14941000    944.30503    63726.747    567.98342   -336.48813     865.1489    528.66078    1406.2877   -336.48813            0   -8.2177354            0            0            0            0            0            0 
14942000    881.21976    64031.784    520.09908   -336.61955    792.21176    455.59221    1278.5086   -336.61955            0   -8.1785875            0            0            0            0            0            0 
14943000    915.06678    62517.079    564.25582   -341.85266    859.47104    517.61838    1351.9282   -341.85266            0   -8.3767437            0            0            0            0            0            0 
14944000    833.93274    64451.896    570.72229   -342.58875    869.32073    526.73197    1310.5994   -342.58875            0   -8.1252775            0            0            0            0            0            0 
14945000    949.20469     65414.52     552.9657   -323.91028    842.27399    518.36371    1423.9085   -323.91028            0   -8.0057079            0            0            0            0            0            0 
14946000    758.88986     69221.47    539.94696   -314.07974    822.44393    508.36419    1274.4818   -314.07974            0   -7.5654208            0            0            0            0            0            0 
14947000    825.37868    65413.885     535.1105   -331.10215    815.07707    483.97492    1271.3816   -331.10215            0   -8.0057857            0            0            0            0            0            0 
14948000     864.9964    62176.792    556.17499   -356.95539    847.16237    490.20698    1274.5725   -356.95539            0   -8.4225887            0            0            0            0            0            0 
14949000    775.80517    66022.473    592.38226   -351.69459    902.31307    550.61848     1297.618   -351.69459            0   -7.9319893            0            0            0            0            0            0 
14950000    920.21948    63462.486      593.171   -341.10984    903.51447    562.40462    1414.1002   -341.10984            0   -8.2519544            0            0            0            0            0            0 
14951000    922.62996    64275.834    585.40553   -336.77499    891.68616    554.91117    1419.7818   -336.77499            0   -8.1475341            0            0            0            0            0            0 
14952000    946.03325    62491.857    549.85995   -350.19317    837.54335    487.35018    1349.5456   -350.19317            0   -8.3801245            0            0            0            0            0            0 
14953000     970.9371    64569.818    598.87278   -322.27093    912.19939    589.92846    1504.2449   -322.27093            0   -8.1104386            0            0            0            0            0            0 
14954000    931.20578     64675.72    578.62126    -332.7808    881.35239    548.57158    1426.9119    -332.7808            0   -8.0971584            0            0            0            0            0            0 
14955000    906.95966    65643.525    579.49038   -322.25266    882.67624    560.42358    1428.6955   -322.25266            0   -7.9777792            0            0            0            0            0            0 
14956000    878.01618    61055.397    552.88803   -366.50744     842.1557    475.64826    1257.4605   -366.50744            0    -8.577285            0            0            0            0            0            0 
14957000    907.97468    66460.565    530.03121   -307.97485    807.34032    499.36548    1379.4283   -307.97485            0   -7.8797035            0            0            0            0            0            0 
14958000    810.31095    65792.847    569.97215   -341.64343    868.17812    526.53469    1304.0452   -341.64343            0    -7.959673            0            0            0            0            0            0 
14959000    801.29643    65616.391    584.58371   -336.35833    890.43437    554.07604    1320.8749   -336.35833            0   -7.9810782            0            0            0            0            0            0 
14960000    954.22691    63497.771     583.5939   -339.46505    888.92669    549.46164    1433.1233   -339.46505            0   -8.2473689            0            0            0            0            0            0 
14961000    835.66937    66148.842    543.18992   -325.61676    827.38359    501.76683    1307.9479   -325.61676            0   -7.9168362            0            0            0            0            0            0 
14962000    890.19349    63105.784    574.86613   -344.90028    875.63261    530.73233    1350.0069   -344.90028            0   -8.2985982            0            0            0            0            0            0 
14963000    854.27854    63454.649    572.88162   -348.69086    872.60981    523.91895    1314.4862   -348.69086            0   -8.2529736            0            0            0            0            0            0 
14964000    727.12658     64861.18    520.21536   -349.52719    792.38888    442.86169    1130.6753   -349.52719            0   -8.0740059            0            0            0            0            0            0 
14965000    818.96703    65134.964    547.38563   -337.86792    833.77448    495.90656    1273.8652   -337.86792            0   -8.0400681            0            0            0            0            0            0 
14966000    1076.7909     62434.84    591.41996   -328.63926     900.8473    572.20804     1552.678   -328.63926            0   -8.3877774            0            0            0            0            0            0 
14967000    824.22115    65007.035    543.29023   -342.00709    827.53638    485.52929    1266.9411   -342.00709            0   -8.0558904            0            0            0            0            0            0 
14968000    933.73729    65329.647    570.79504   -332.31037    869.43155    537.12118    1426.7542   -332.31037            0   -8.0161086            0            0            0            0            0            0 
14969000    961.49987    63767.928    551.20885   -324.55173    839.59798    515.04625    1409.2313   -324.55173            0   -8.2124284            0            0            0            0            0            0 
14970000    761.77992    67856.006    533.10492   -321.91974    812.02218    490.10245    1243.9677   -321.91974            0   -7.7176595            0            0            0            0            0            0 
14971000    882.97171    64005.799    542.40763   -338.39136    826.19201    487.80065    1312.0185   -338.39136            0   -8.1819077            0            0            0            0            0            0 
14972000    973.57246     64786.97    601.55706   -322.28644    916.28807    594.00163     1513.883   -322.28644            0   -8.0832542            0            0            0            0            0            0 
14973000     849.7422    64208.144    572.21049   -347.07003    871.58755    524.51753    1320.2245   -347.07003            0   -8.1561234            0            0            0            0            0            0 
14974000    929.73322    60429.993    562.59838   -363.93937    856.94644    493.00707    1312.3898   -363.93937            0   -8.6660533            0            0            0            0            0            0 
14975000    665.90531    68892.969    544.31082   -327.34633    829.09094     501.7446    1170.8018   -327.34633            0   -7.6014948            0            0            0            0            0            0 
14976000    1055.1074    62501.214     579.2175   -331.75342    882.26059    550.50716    1512.2546   -331.75342            0     -8.37887            0            0            0            0            0            0 
14977000    963.85662    64920.392    580.95313   -326.68476    884.90429    558.21953    1470.7964   -326.68476            0   -8.0666417            0            0            0            0            0            0 
14978000    896.80399     64308.92    548.19696   -335.33486    835.01029    499.67543    1340.7696   -335.33486            0   -8.1433423            0            0            0            0            0            0 
14979000    943.04019    62289.961    542.14668   -339.81382    825.79454    485.98072    1342.6716   -339.81382            0   -8.4072865            0            0            0            0            0            0 
14980000    856.51274    65923.915    570.64143    -325.6731    869.19756    543.52447    1367.0038    -325.6731            0   -7.9438477            0            0            0            0            0            0 
14981000     1008.737    62016.271    573.33876   -334.73847    873.30612    538.56765    1450.9135   -334.73847            0   -8.4443894            0            0            0            0            0            0 
14982000    918.34702    64868.732    548.41831   -320.04044    835.34745      515.307    1384.1036   -320.04044            0   -8.0730658            0            0            0            0            0            0 
14983000    985.07671    62235.048    548.73165   -335.58407    835.82472    500.24065    1394.3301   -335.58407            0   -8.4147046            0            0            0            0            0            0 
14984000    832.24311    65613.808     544.5813   -322.69768    829.50294    506.80526    1303.1871   -322.69768            0   -7.9813923            0            0            0            0            0            0 
14985000    783.15792    65163.257    534.88716   -339.48236    814.73688    475.25452    1219.5202   -339.48236            0   -8.0365773            0            0            0            0            0            0 
14986000    972.61067    62258.366    595.33368   -351.71373    906.80865    555.09492    1438.2005   -351.71373            0    -8.411553            0            0            0            0            0            0 
14987000    845.79758     65354.66    568.80117   -335.62352    866.39449    530.77097    1336.9266   -335.62352            0   -8.0130406            0            0            0            0            0            0 
14988000    965.21338    64257.443    570.54979   -325.67043    869.05798    543.38755    1447.9169   -325.67043            0   -8.1498659            0            0            0            0            0            0 
14989000    849.94786    67496.735    519.95046   -311.48142    791.98538    480.50396    1317.1677   -311.48142            0   -7.7587389            0            0            0            0            0            0 
14990000    1025.8749    60505.837    550.37542    -342.6794     838.3285     495.6491    1400.8971    -342.6794            0   -8.6551905            0            0            0            0            0            0 
14991000    830.40649    65527.418     576.6496   -333.68571    878.34917    544.66345    1338.2416   -333.68571            0   -7.9919148            0            0            0            0            0            0 
14992000    925.62773    63558.902    551.77444      -342.04    840.45948    498.41948    1356.4221      -342.04            0   -8.2394367            0            0            0            0            0            0 
14993000    877.88571    65229.381    544.01788   -331.53336    828.64474    497.11138    1332.2472   -331.53336            0   -8.0284304            0            0            0            0            0            0 
14994000    991.27967    62410.854    564.82356   -337.34275    860.33583    522.99307    1425.2541   -337.34275            0   -8.3910011            0            0            0            0            0            0 
14995000    877.16362    64273.097    582.23108   -337.00267    886.85085    549.84819    1372.0638   -337.00267            0    -8.147881            0            0            0            0            0            0 
14996000     963.7496    63526.645    555.40973   -330.32769    845.99673    515.66904    1408.5551   -330.32769            0   -8.2436204            0            0            0            0            0            0 
14997000    950.87399    65885.989    551.89164   -310.32754    840.63799    530.31045    1443.9858   -310.32754            0   -7.9484205            0            0            0            0            0            0 
14998000    920.93657    62962.405    544.59053   -344.46932    829.51699    485.04767    1330.6904   -344.46932            0    -8.317496            0            0            0            0            0            0 
14999000    926.55431    63382.131    573.79693   -346.95709      874.004    527.04691    1383.5198   -346.95709            0   -8.2624162            0            0            0            0            0            0 
15000000    746.81364    66761.008    573.43035   -339.54535    873.44563    533.90027    1261.0285   -339.54535            0   -7.8442426            0            0            0            0            0            0 
Loop time of 1335.62 on 8 procs for 5000000 steps with 512 atoms

Pair  time (%) = 729.149 (54.5926)
Bond  time (%) = 0.437517 (0.0327576)
Neigh time (%) = 37.3141 (2.79377)
Comm  time (%) = 411.257 (30.7915)
Outpt time (%) = 0.281287 (0.0210604)
Other time (%) = 157.179 (11.7683)

Nlocal:    64 ave 71 max 56 min
Histogram: 2 0 0 0 1 1 0 2 1 1
Nghost:    1134.25 ave 1153 max 1113 min
Histogram: 1 0 0 1 1 2 1 1 0 1
Neighs:    4964.38 ave 5583 max 4203 min
Histogram: 2 0 0 0 0 2 2 0 1 1

Total # of neighbors = 39715
Ave neighs/atom = 77.5684
Ave special neighs/atom = 0
Neighbor list builds = 109088
Dangerous builds = 0

Averages
Group Pressure(MPa) Volume(m3) Temperature(K) PE(J) KE(J) ET(J) ET^2(J) H(J) H^2(J^2) V^2(m6) V*H(m3*J) Hconf(J) Uext*Hconf(J^2) V*Hconf(m3*J) Uext(J)
Block1 89.98518977484356185 6.4188595087723227661e-26 559.4433504565425892 -2.3390038899944873099e-18 5.9204136790310488045e-18 3.5814097890365549465e-18 1.2881750364125402401e-35 9.3494815433665759328e-18 8.7811923545071393236e-35 4.123299699481776092e-51 5.9999399840477762504e-43 3.4290678643355259727e-18 -7.9894359871897269222e-36 2.1998684548750404609e-43 -2.3390038899944873099e-18
Block2 89.836227503000770866 6.4119213085522176357e-26 559.9692912977072865 -2.3460573291576977324e-18 5.9259795461520806622e-18 3.5799222169943879373e-18 1.2869672883628331765e-35 9.3319876040139188822e-18 8.7478733737702871609e-35 4.1143720688943686268e-51 5.9820319616092725812e-43 3.4060080578618386052e-18 -7.9584332640712416838e-36 2.1824514293396131351e-43 -2.3460573291576977324e-18
Block3 90.053735437379074824 6.4194395524408597396e-26 560.11278946698951131 -2.3382464781278881149e-18 5.9274981423131585951e-18 3.5892516641852600802e-18 1.2938210114229546351e-35 9.3627608448596682337e-18 8.8048598011732157385e-35 4.124093713632440079e-51 6.0095382095119543534e-43 3.4352627025465219646e-18 -8.0000752530572613741e-36 2.2044713977124831984e-43 -2.3382464781278881149e-18
Block4 90.23362267762428246 6.4202411069288787761e-26 560.69080457414372631 -2.3373887204529741342e-18 5.9336150950739409187e-18 3.5962263746209756438e-18 1.2986830600935947356e-35 9.3810556009490796876e-18 8.8378023310021937257e-35 4.1252010187888927164e-51 6.0212919282807357969e-43 3.4474405058751403096e-18 -8.0282900535198052942e-36 2.2120097741086107108e-43 -2.3373887204529741342e-18
Block5 90.085905099875702717 6.418689768876952749e-26 559.9742289004268514 -2.3401593961370885277e-18 5.9260317992544867831e-18 3.5858724031173990257e-18 1.2915459423519041023e-35 9.3613508408566671613e-18 8.7997650311152494516e-35 4.1230549243239536655e-51 6.0083215372631781375e-43 3.4353190416021977116e-18 -8.0076509056360742917e-36 2.204474178037255396e-43 -2.3401593961370885277e-18
Ave_blocks 90.038936098544667175 6.4178302491142461037e-26 560.03809293916197021 -2.3401711627740271638e-18 5.926707652364943615e-18 3.5865364895909156808e-18 1.2918384677287652175e-35 9.3573272868091801306e-18 8.7942985783136168662e-35 4.1220042850242858799e-51 6.0042247241425834239e-43 3.4306196344442449898e-18 -7.9967770926948221805e-36 2.2006550468146003413e-43 -2.3401711627740271638e-18
Stdev_blocks 0.12985177211609907899 3.0038582134061460531e-29 0.39853304797788907665 3.0807796139588876023e-21 4.2175503683586688009e-21 5.860694777466605827e-21 4.1955598591830490178e-38 1.6201238511388297033e-20 2.9533271921231243578e-37 3.8888940144673716206e-54 1.3016790450406237227e-45 1.3672760636208605545e-20 2.3005761857265575553e-38 9.9002075276027848056e-46 3.0807796139588876023e-21






Properties
Group rho(kg/m3) Cp(J/K) Cp_conf(J/K) Cp_id(J/K) Cp2(J/K) kT(1/Pa) aP(1/K) aP2(1/K) Cv(J/K) uJT(K/Pa) sos(m/s) Cv2(J/K) uJT2(K/Pa) sos2(m/s) CvNVT(J/K)
Block1 212.48687779410380472 9.2364761772942677443e-20 -2.3593509201369694392e-21 4.2582617169530880873e-20 4.0223266249393912186e-20 6.3009825735286056298e-09 -0.00049063919696075246595 -0.00043337379944224864621 9.0992837342968339791e-20 -8.8569915113542949131e-07 870.7216772176309405 3.9152903439256505142e-20 -1.9827081394922299799e-06 875.96445435141583857 1.2787054845757966212e-20
Block2 212.71680521076035575 9.0718258866401746717e-20 -2.6354637946475906378e-21 4.2609356245452498124e-20 3.9973892450804905981e-20 6.2506820078334371947e-09 -0.00056380622747339366636 -0.00052384752885821939811 8.8892326334871617025e-20 -9.2994021834901439149e-07 876.09381345882786718 3.83976072856309384e-20 -2.0745502546613584279e-06 884.85382986158538188 1.2434008387736368322e-20
Block3 212.46767803887519221 8.9417303060516196483e-20 -1.1958568300548672934e-21 4.2616650925711983848e-20 4.142079409565711505e-20 6.3922666490653935028e-09 -0.00029832878011223126335 -0.00027862393650220172031 8.8916683257917832181e-20 -8.3788185273987330429e-07 860.48891271034210604 4.0984122877450711092e-20 -1.7916756018318397611e-06 862.63586514229496061 1.2809218920586500851e-20
Block4 212.44115186671831452 8.6125434505802838884e-20 -2.987258214685491642e-21 4.2646030488222600031e-20 3.9658772273537106885e-20 6.5420919125206436235e-09 -0.00056410202197421197446 -0.00047733081155571562698 8.4374485721567866082e-20 -9.8122915451120419041e-07 857.00330968332116299 3.8405062337249399394e-20 -2.0521367274735440825e-06 861.98111512068953743 1.2438121397433940658e-20
Block5 212.49249693160740549 8.379169683262057924e-20 -9.2854455336403868124e-22 4.2609607252742433347e-20 4.1681062699378395418e-20 6.2410275273669983564e-09 -0.00015803251564269573163 -0.00019811783342524967176 8.3647866251583320019e-20 -8.3381843773236578858e-07 869.10692440028014971 4.1455012201507783404e-20 -1.7107972793678596024e-06 870.72501002716501262 1.3161092937038771328e-20
Ave_blocks 212.52100196841303159 8.8483491007656810161e-20 -2.0212948625777916892e-21 4.2612852416332082856e-20 4.0591557553754291919e-20 6.3454101340630163232e-09 -0.00041498174843265702577 -0.00038225878195672702894 8.7364839781781802242e-20 -8.9371376289357758145e-07 866.68292749408044529 3.9678941628219066283e-20 -1.9223736005653660743e-06 871.23205490063014622 1.2725899297710710377e-20
Stdev_blocks 0.099534301937889396727 3.1146048909242828453e-21 8.1240651851267479765e-22 2.025901070908428974e-23 8.076994178563148088e-22 1.1200197283091452073e-10 0.0001610841111407032534 0.00012356931592608785754 2.8517331319008710763e-21 5.6107372089706248715e-08 6.9686850276901219914 1.2960885074987843284e-21 1.4524666351333221966e-07 8.5753112751177180684 2.7132714111864389576e-22






