LAMMPS (28 Oct 2012)
Scanning data file ...
Reading data file ...
  orthogonal box = (0 0 0) to (100 100 100)
  2 by 2 by 2 MPI processor grid
  512 atoms
Finding 1-2 1-3 1-4 neighbors ...
  0 = max # of 1-2 neighbors
  0 = max # of 1-3 neighbors
  0 = max # of 1-4 neighbors
  1 = max # of special neighbors
WARNING: Resetting reneighboring criteria during minimization (min.cpp:173)
Setting up minimization ...
Memory usage per processor = 4.05499 Mbytes
Step Temp E_pair E_mol TotEng Press 
       0       480.15    1409.7233            0    2141.0849    445.94867 
     701       480.15   -217.27527            0     514.0863    33.203768 
Loop time of 0.0527478 on 8 procs for 701 steps with 512 atoms

Minimization stats:
  Stopping criterion = energy tolerance
  Energy initial, next-to-last, final = 
         1409.72334813     -217.256630745     -217.275265106
  Force two-norm initial, final = 5034.49 0.337455
  Force max component initial, final = 2457.89 0.147661
  Final line search alpha, max atom move = 0.254892 0.0376377
  Iterations, force evaluations = 701 710

Pair  time (%) = 0.00893295 (16.9352)
Bond  time (%) = 5.81443e-05 (0.110231)
Neigh time (%) = 0.00313932 (5.95157)
Comm  time (%) = 0.0204558 (38.7804)
Outpt time (%) = 0 (0)
Other time (%) = 0.0201616 (38.2226)

Nlocal:    64 ave 74 max 52 min
Histogram: 1 0 0 1 1 2 0 2 0 1
Nghost:    235.125 ave 266 max 224 min
Histogram: 4 0 2 0 0 1 0 0 0 1
Neighs:    316.25 ave 371 max 226 min
Histogram: 1 0 0 1 1 1 0 1 0 3

Total # of neighbors = 2530
Ave neighs/atom = 4.94141
Ave special neighs/atom = 0
Neighbor list builds = 60
Dangerous builds = 0
Setting up run ...
Memory usage per processor = 3.36354 Mbytes
Step Temp E_pair E_mol TotEng Press Volume 
     701       480.15   -217.27527            0     514.0863    33.203768      1000000 
 5000701    501.62118   -390.83985            0    373.22649    1037.1329    56142.106 
Loop time of 1446.13 on 8 procs for 5000000 steps with 512 atoms

Pair  time (%) = 820.436 (56.7334)
Bond  time (%) = 0.46701 (0.0322939)
Neigh time (%) = 37.875 (2.61907)
Comm  time (%) = 428.706 (29.6451)
Outpt time (%) = 4.14252e-05 (2.86457e-06)
Other time (%) = 158.642 (10.9701)

Nlocal:    64 ave 69 max 56 min
Histogram: 1 0 0 1 0 1 2 1 0 2
Nghost:    1276.38 ave 1326 max 1226 min
Histogram: 2 0 0 0 2 1 1 0 1 1
Neighs:    5886.75 ave 6682 max 4981 min
Histogram: 1 0 0 2 0 3 0 0 1 1

Total # of neighbors = 47094
Ave neighs/atom = 91.9805
Ave special neighs/atom = 0
Neighbor list builds = 101077
Dangerous builds = 14
Setting up run ...
Memory usage per processor = 3.96718 Mbytes
Step Press Volume Temp PotEng KinEng TotEng Enthalpy E_vdwl E_coul E_tail E_long E_bond E_angle E_dihed E_impro E_mol 
10000000    1037.1329    56142.106    501.62118   -390.83985    764.06634    373.22649     1222.405   -390.83985            0   -9.3279284            0            0            0            0            0            0 
10001000    844.39333    57296.503    472.00862   -390.79344    718.96067    328.16724    1033.7514   -390.79344            0   -9.1399914            0            0            0            0            0            0 
10002000    953.64853    56315.802    476.97997   -387.56922    726.53299    338.96377    1122.2031   -387.56922            0   -9.2991581            0            0            0            0            0            0 
10003000    834.89612    57225.163     489.9737   -396.45807    746.32497     349.8669    1046.6464   -396.45807            0   -9.1513858            0            0            0            0            0            0 
10004000    846.70254    57590.373    489.47875   -391.72377    745.57106    353.84729    1064.9898   -391.72377            0   -9.0933522            0            0            0            0            0            0 
10005000    852.11744    53459.352    484.48168   -439.25149    737.95956    298.70807    963.06127   -439.25149            0   -9.7960324            0            0            0            0            0            0 
10006000    929.19837    58427.634    483.97025   -376.50692    737.18054    360.67362    1152.4502   -376.50692            0   -8.9630455            0            0            0            0            0            0 
10007000    831.67419    58679.584    452.83971   -385.62499     689.7627    304.13771    1015.8691   -385.62499            0   -8.9245613            0            0            0            0            0            0 
10008000    956.34432    56320.753    481.94181   -394.86982    734.09084    339.22102    1124.7435   -394.86982            0   -9.2983407            0            0            0            0            0            0 
10009000    1000.9133    55981.481    478.38297   -389.69012    728.67004    338.97992     1156.158   -389.69012            0   -9.3546926            0            0            0            0            0            0 
10010000     847.0881    59375.998    480.34449   -370.42789    731.65781    361.22993    1094.7557   -370.42789            0   -8.8198862            0            0            0            0            0            0 
10011000    969.63513    56205.531    470.99252   -391.79891    717.41294    325.61403     1120.424   -391.79891            0   -9.3174024            0            0            0            0            0            0 
10012000    642.35364    57981.747    481.51489   -415.13892    733.44056    318.30164    861.47864   -415.13892            0   -9.0319726            0            0            0            0            0            0 
10013000    758.40701    58716.075    506.07341   -391.77718    770.84795    379.07078    1028.5051   -391.77718            0   -8.9190148            0            0            0            0            0            0 
10014000    1013.1798    54623.736    480.35349   -406.26578    731.67153    325.40574    1132.5364   -406.26578            0   -9.5872158            0            0            0            0            0            0 
10015000    800.65992    56759.832    486.98934   -409.28678    741.77921    332.49242    995.26583   -409.28678            0   -9.2264112            0            0            0            0            0            0 
10016000    920.43007    56565.247    475.41048   -395.80609    724.14236    328.33627    1087.6415   -395.80609            0   -9.2581501            0            0            0            0            0            0 
10017000    787.88132    55965.423    475.28137   -417.68854     723.9457    306.25716    949.32454   -417.68854            0   -9.3573767            0            0            0            0            0            0 
10018000     868.7994     56086.91    503.59802   -401.67908    767.07745    365.39837    1076.0503   -401.67908            0   -9.3371082            0            0            0            0            0            0 
10019000    837.98488    59291.793    506.19083   -381.40611    771.02681    389.62069    1114.2346   -381.40611            0    -8.832412            0            0            0            0            0            0 
10020000    851.97173    55857.765    477.62094    -410.9559    727.50932    316.55342    1010.5936    -410.9559            0   -9.3754117            0            0            0            0            0            0 
10021000    1034.8507    56070.444    459.64424   -383.02263    700.12733    317.10469    1163.3331   -383.02263            0   -9.3398502            0            0            0            0            0            0 
10022000    804.68474    58942.151    490.35099   -388.13868    746.89966    358.76098    1050.4767   -388.13868            0   -8.8848055            0            0            0            0            0            0 
10023000    917.94674    55100.285    488.09993   -421.98527    743.47086    321.48559    1059.1303   -421.98527            0   -9.5042983            0            0            0            0            0            0 
10024000    784.29833    57988.399    489.77919    -407.7268    746.02869     338.3019     1001.584    -407.7268            0   -9.0309365            0            0            0            0            0            0 
10025000     1000.238    55301.118    491.39655   -402.85219    748.49225    345.64006    1152.3421   -402.85219            0   -9.4697823            0            0            0            0            0            0 
10026000    1020.8471    57404.315    482.28666   -376.42914    734.61611    358.18697    1212.8229   -376.42914            0   -9.1228254            0            0            0            0            0            0 
10027000    939.38764    57768.796    474.74244   -379.65538     723.1248    343.46942    1134.9022   -379.65538            0   -9.0652668            0            0            0            0            0            0 
10028000    865.98151    55958.522    493.91654   -414.43446    752.33067    337.89621    1044.6217   -414.43446            0   -9.3585307            0            0            0            0            0            0 
10029000    784.66103    58138.082    465.92557   -394.53437    709.69501    315.16063     980.4624   -394.53437            0   -9.0076853            0            0            0            0            0            0 
10030000    1008.3138    60520.763    475.85253   -339.57286    724.81568    385.24282    1275.2141   -339.57286            0   -8.6530559            0            0            0            0            0            0 
10031000    1057.4598    54165.625    464.40567   -399.83682     707.3799    307.54308    1142.8835   -399.83682            0   -9.6683007            0            0            0            0            0            0 
10032000    920.03451    57226.195    499.68505   -392.54283    761.11724    368.57441    1136.4217   -392.54283            0   -9.1512208            0            0            0            0            0            0 
10033000    1014.3803    55944.295    478.78032   -382.25805    729.27528    347.01723    1174.6401   -382.25805            0   -9.3609106            0            0            0            0            0            0 
10034000    798.65631    59345.904    482.60266   -389.49874    735.09744    345.59869     1036.835   -389.49874            0   -8.8243588            0            0            0            0            0            0 
10035000    871.80105    57967.909    470.48779   -387.29718    716.64415    329.34697    1066.3698   -387.29718            0   -9.0341286            0            0            0            0            0            0 
10036000    808.48273    57509.291    479.19513    -401.2433    729.90712    328.66381    1006.7496    -401.2433            0   -9.1061729            0            0            0            0            0            0 
10037000    983.80763    55129.015    493.74629   -403.23062    752.07135    348.84074    1139.8222   -403.23062            0   -9.4993453            0            0            0            0            0            0 
10038000    896.49698    56083.829    484.21669   -402.74852    737.55592     334.8074    1068.0748   -402.74852            0   -9.3376212            0            0            0            0            0            0 
10039000    796.08723    60661.782    481.42506   -366.79786    733.30373    366.50588    1070.7962   -366.79786            0   -8.6329403            0            0            0            0            0            0 
10040000    961.20023    56510.779    476.36357   -393.35417     725.5941    332.23993    1124.4148   -393.35417            0   -9.2670736            0            0            0            0            0            0 
10041000    788.40925    56924.698    468.61586   -398.50786    713.79283    315.28498    969.81314   -398.50786            0   -9.1996894            0            0            0            0            0            0 
10042000    1055.7528     53519.11    458.79413   -410.79483    698.83243     288.0376    1112.0751   -410.79483            0   -9.7850944            0            0            0            0            0            0 
10043000    747.98272    58086.737    464.35233   -401.25458    707.29865    306.04407    939.68677   -401.25458            0   -9.0156475            0            0            0            0            0            0 
10044000    822.87797    57286.769    498.66562   -407.37205    759.56444     352.1924    1039.6812   -407.37205            0   -9.1415445            0            0            0            0            0            0 
10045000    1150.0011    54726.561    495.23888   -395.52319    754.34487    358.82168    1276.6729   -395.52319            0   -9.5692026            0            0            0            0            0            0 
10046000    776.04937    58774.094    460.14353   -385.94834    700.88784     314.9395    980.13788   -385.94834            0   -8.9102105            0            0            0            0            0            0 
10047000    1077.1474    56535.334    474.95963   -371.68288    723.45563    351.77275    1239.8914   -371.68288            0   -9.2630486            0            0            0            0            0            0 
10048000    795.80733    61028.098    515.20102   -383.09069    784.75107    401.66038    1109.9545   -383.09069            0   -8.5811218            0            0            0            0            0            0 
10049000    1003.5915    55504.662    477.40524   -398.77083    727.18077    328.40994    1140.7957   -398.77083            0   -9.4350552            0            0            0            0            0            0 
10050000    964.96995    57268.138    475.35584   -381.33335    724.05913    342.72578    1148.6658   -381.33335            0   -9.1445184            0            0            0            0            0            0 
10051000     916.7327    56890.587    457.59419   -392.23695    697.00469    304.76774    1065.3725   -392.23695            0   -9.2052055            0            0            0            0            0            0 
10052000    1036.4972    53065.353    478.00193   -426.46186    728.08964    301.62778    1103.7769   -426.46186            0   -9.8687659            0            0            0            0            0            0 
10053000    763.30832      59556.8    463.55525   -382.19068    706.08455    323.89387    986.88427   -382.19068            0   -8.7931109            0            0            0            0            0            0 
10054000    810.86986    55683.337    478.94222   -415.76168    729.52188     313.7602    972.25493   -415.76168            0   -9.4047801            0            0            0            0            0            0 
10055000    782.74091    57673.917    460.80801     -393.938    701.89996    307.96196    966.33701     -393.938            0     -9.08018            0            0            0            0            0            0 
10056000     906.6009    56377.325    498.48685   -399.87586    759.29215    359.41629    1104.8285   -399.87586            0   -9.2890101            0            0            0            0            0            0 
10057000    816.67478    59794.492    490.26806   -382.37521    746.77334    364.39813    1076.5723   -382.37521            0    -8.758157            0            0            0            0            0            0 
10058000    857.86695    56497.123    493.21383   -407.96866    751.26031    343.29165    1050.1333   -407.96866            0   -9.2693136            0            0            0            0            0            0 
10059000     935.7302     55839.81    485.18479   -408.31416    739.03053    330.71637    1092.7436   -408.31416            0   -9.3784263            0            0            0            0            0            0 
10060000    1088.7509    54727.133    480.49655   -390.08685    731.88943    341.80258    1210.7772   -390.08685            0   -9.5691025            0            0            0            0            0            0 
10061000    816.60188    57733.282    489.79154   -400.79507    746.04751    345.25244    1032.8155   -400.79507            0   -9.0708432            0            0            0            0            0            0 
10062000      943.562    56070.846    481.56525   -388.73896    733.51727    344.77831    1116.3627   -388.73896            0   -9.3397832            0            0            0            0            0            0 
10063000    792.18869    56664.218    495.76087   -415.55664    755.13996    339.58331    994.23973   -415.55664            0   -9.2419795            0            0            0            0            0            0 
10064000    855.53892    56782.228    495.27204   -405.65244    754.39537    348.74294    1057.2238   -405.65244            0    -9.222772            0            0            0            0            0            0 
10065000    829.35803    57135.833    479.62564   -400.80909    730.56287    329.75378    1020.8309   -400.80909            0   -9.1656938            0            0            0            0            0            0 
10066000    917.85443    56873.146    481.46695   -395.22499    733.36753    338.14254    1099.4445   -395.22499            0   -9.2080284            0            0            0            0            0            0 
10067000    904.17811    57146.408     481.0317   -391.61265    732.70457    341.09192    1094.6536   -391.61265            0   -9.1639975            0            0            0            0            0            0 
10068000     1024.549    54486.906    511.13889   -413.03432    778.56366    365.52934    1179.6725   -413.03432            0   -9.6112916            0            0            0            0            0            0 
10069000    846.87067    59576.909    487.60594   -379.27063    742.71841    363.44778    1099.2667   -379.27063            0   -8.7901429            0            0            0            0            0            0 
10070000      1054.72    55837.468    439.37163   -383.96896    669.24821    285.27925    1144.1717   -383.96896            0   -9.3788197            0            0            0            0            0            0 
10071000    1119.5308    56904.164    513.45108   -370.52366    782.08557    411.56191     1340.648   -370.52366            0   -9.2030092            0            0            0            0            0            0 
10072000    843.30054    58098.615    496.98785   -393.87317    757.00889    363.13571    1077.6716   -393.87317            0   -9.0138043            0            0            0            0            0            0 
10073000    853.87327    56847.127    509.09567   -401.29217    775.45144    374.15926    1082.0689   -401.29217            0    -9.212243            0            0            0            0            0            0 
10074000    1039.5728    56046.749    475.17227   -382.51459    723.77953    341.26494    1190.9954   -382.51459            0   -9.3437987            0            0            0            0            0            0 
10075000    868.90553    57919.066    492.50417    -388.3544    750.17937    361.82497    1095.7809    -388.3544            0   -9.0417471            0            0            0            0            0            0 
10076000    868.53485     56069.59    488.79074    -410.9045    744.52309     333.6186    1043.8347    -410.9045            0   -9.3399924            0            0            0            0            0            0 
10077000    852.03768    56542.033    479.55599   -408.26802    730.45677    322.18876    1024.7855   -408.26802            0   -9.2619511            0            0            0            0            0            0 
10078000    962.38822    56074.067     465.1631   -396.43788    708.53361    312.09573    1099.1202   -396.43788            0   -9.3392467            0            0            0            0            0            0 
10079000    897.71595    55931.163    477.51257    -407.2495    727.34425    320.09475    1052.3604    -407.2495            0   -9.3631084            0            0            0            0            0            0 
10080000    698.03232    57919.526    474.91658   -412.75199    723.39005    310.63806    900.26378   -412.75199            0   -9.0416753            0            0            0            0            0            0 
10081000    892.45458    55408.671    483.97427   -408.71592    737.18668    328.47076    1049.6442   -408.71592            0   -9.4514006            0            0            0            0            0            0 
10082000    793.20762    56766.169    484.65608   -407.30343    738.22521    330.92177     987.5996   -407.30343            0   -9.2253811            0            0            0            0            0            0 
10083000    855.44206    60149.732     503.4146   -373.27571    766.79807    393.52236    1143.9351   -373.27571            0   -8.7064318            0            0            0            0            0            0 
10084000    930.24072    58070.306     498.6801   -376.39761    759.58651     383.1889    1171.0059   -376.39761            0   -9.0181985            0            0            0            0            0            0 
10085000    930.63513    55744.204    498.98624   -409.64085    760.05282    350.41197    1106.9923   -409.64085            0   -9.3945112            0            0            0            0            0            0 
10086000    760.14552    58267.608     461.1976   -400.10977    702.49339    302.38362    948.33499   -400.10977            0   -8.9876616            0            0            0            0            0            0 
10087000    880.59098     54947.24    476.81594   -419.16948    726.28316    307.11368    1012.7745   -419.16948            0   -9.5307706            0            0            0            0            0            0 
10088000    894.91641    57119.842    463.40177    -392.3947    705.85076    313.45606    1058.9521    -392.3947            0   -9.1682597            0            0            0            0            0            0 
10089000    914.00685    57447.508    491.91108   -389.02906    749.27597    360.24691    1126.0137   -389.02906            0   -9.1159663            0            0            0            0            0            0 
10090000    817.78018    56561.183     536.9929   -416.23064    817.94434     401.7137    1076.2898   -416.23064            0   -9.2588152            0            0            0            0            0            0 
10091000    940.32243     54500.52    470.63357   -409.68994     716.8662    307.17626    1054.5767   -409.68994            0   -9.6088907            0            0            0            0            0            0 
10092000    822.10926    60241.769    492.41044   -375.63343     750.0366    374.40317    1096.6791   -375.63343            0   -8.6931303            0            0            0            0            0            0 
10093000     915.3236    55980.515    492.56712   -401.52502    750.27525    348.75023    1096.0372   -401.52502            0    -9.354854            0            0            0            0            0            0 
10094000    906.11953    58413.384    495.21135   -382.80126    754.30292    371.50167    1143.4243   -382.80126            0    -8.965232            0            0            0            0            0            0 
10095000    885.14649    55332.027    495.05184   -419.61538    754.05996    334.44457    1048.7231   -419.61538            0   -9.4644923            0            0            0            0            0            0 
10096000    835.29844    58042.412    483.89952   -391.57968    737.07281    345.49313    1052.5641   -391.57968            0   -9.0225325            0            0            0            0            0            0 
10097000      892.283    56427.773    473.42635   -395.52244    721.12015    325.59771    1059.8941   -395.52244            0   -9.2807055            0            0            0            0            0            0 
10098000    824.38946    57011.611    462.59661   -394.77124    704.62435     309.8531    995.29656   -394.77124            0   -9.1856647            0            0            0            0            0            0 
10099000    772.48704    57751.851    470.30884   -396.97279    716.37157    319.39878    970.02716   -396.97279            0   -9.0679265            0            0            0            0            0            0 
10100000    738.80312    58465.958    493.48639   -401.70622    751.67548    349.96926    979.92158   -401.70622            0   -8.9571704            0            0            0            0            0            0 
10101000    938.10785    57285.745    486.58762   -395.11436    741.16732    346.05296    1129.7988   -395.11436            0   -9.1417079            0            0            0            0            0            0 
10102000     976.0765    55652.665    494.46256   -395.12423    753.16237    358.03814     1150.258   -395.12423            0   -9.4099636            0            0            0            0            0            0 
10103000    761.26889    58283.289    507.95901   -406.46539    773.72008    367.25469    1014.3348   -406.46539            0   -8.9852435            0            0            0            0            0            0 
10104000    807.73691    57672.323    476.28672    -401.0485    725.47705    324.42854    1003.8093    -401.0485            0    -9.080431            0            0            0            0            0            0 
10105000     848.2773     56978.22    505.25179   -405.60644    769.59646    363.99002    1068.8821   -405.60644            0   -9.1910478            0            0            0            0            0            0 
10106000    995.96835    56554.029    512.96131   -390.91383    781.33955    390.42572     1211.883   -390.91383            0   -9.2599865            0            0            0            0            0            0 
10107000    930.01205    56699.469    472.75418   -392.24874    720.09629    327.84755    1096.8779   -392.24874            0   -9.2362337            0            0            0            0            0            0 
10108000    911.64687    56478.508    461.59784   -394.56858    703.10302    308.53444    1059.4408   -394.56858            0   -9.2723685            0            0            0            0            0            0 
10109000    841.32538    58022.577    458.35974   -391.08035    698.17077    307.09042    1019.0198   -391.08035            0   -9.0256169            0            0            0            0            0            0 
10110000    956.06149    59227.227    508.00077   -362.91409    773.78369     410.8696    1236.6853   -362.91409            0   -8.8420406            0            0            0            0            0            0 
10111000    960.05487    56063.856    487.09246   -393.15212    741.93629    348.78417    1133.7575   -393.15212            0   -9.3409477            0            0            0            0            0            0 
10112000    881.84536    56231.967    494.31484   -407.41329    752.93737    345.52408    1068.7127   -407.41329            0    -9.313022            0            0            0            0            0            0 
10113000    905.64969     57425.14     472.4428   -385.15904    719.62201    334.46296    1092.9326   -385.15904            0   -9.1195171            0            0            0            0            0            0 
10114000     971.3358    58693.812    461.92359   -359.28796    703.59921    344.31126    1175.7641   -359.28796            0   -8.9223979            0            0            0            0            0            0 
10115000    910.90126    56445.682    507.59276   -399.63979    773.16222    373.52242    1123.3785   -399.63979            0    -9.277761            0            0            0            0            0            0 
10116000    864.81688    57601.372    486.29446   -395.40824    740.72077    345.31254    1071.8079   -395.40824            0   -9.0916158            0            0            0            0            0            0 
10117000     869.2214    57202.959    438.43407   -390.78009    667.82012    277.04002    1002.1849   -390.78009            0    -9.154938            0            0            0            0            0            0 
10118000    816.34766     57543.88    479.20312   -398.18784    729.91928    331.73144    1016.8255   -398.18784            0   -9.1006993            0            0            0            0            0            0 
10119000    905.83021     54919.52    489.64631   -420.65425    745.82629    325.17204    1050.6921   -420.65425            0   -9.5355812            0            0            0            0            0            0 
10120000    879.89953    55449.644    516.45438   -413.54441    786.66018    373.11577    1084.6696   -413.54441            0   -9.4444168            0            0            0            0            0            0 
10121000    961.46158    58092.405    505.96125   -375.25664    770.67711    395.42047    1209.9882   -375.25664            0   -9.0147678            0            0            0            0            0            0 
10122000    918.15054    55068.008    460.48289   -409.77303    701.40474    291.63172     1029.008   -409.77303            0   -9.5098691            0            0            0            0            0            0 
10123000    800.03346    59009.878    491.33591    -382.1973    748.39987    366.20258    1054.7102    -382.1973            0   -8.8746082            0            0            0            0            0            0 
10124000    1202.8108    54638.475    497.03776   -374.40474     757.0849    382.68016    1341.1353   -374.40474            0   -9.5846295            0            0            0            0            0            0 
10125000     763.6118     56489.58    472.51644   -412.45601    719.73418    307.27817    936.37408   -412.45601            0   -9.2705513            0            0            0            0            0            0 
10126000    909.71427    57108.274    476.49714   -393.53859    725.79756    332.25897    1089.9287   -393.53859            0   -9.1701168            0            0            0            0            0            0 
10127000    870.70966    57534.015    482.05982   -395.23226     734.2706    339.03834    1069.6287   -395.23226            0   -9.1022597            0            0            0            0            0            0 
10128000     1004.159    56290.627    506.97388   -385.94114    772.21954     386.2784    1210.6337   -385.94114            0   -9.3033169            0            0            0            0            0            0 
10129000    927.10888    56756.364    494.76713   -394.33608    753.62629    359.29022    1126.6892   -394.33608            0   -9.2269749            0            0            0            0            0            0 
10130000    806.92767    57314.329    495.25348   -406.66103    754.36709    347.70606    1022.1933   -406.66103            0   -9.1371486            0            0            0            0            0            0 
10131000    856.34195    57914.768    470.64432   -385.75249    716.88257    331.13008      1054.42   -385.75249            0   -9.0424181            0            0            0            0            0            0 
10132000    993.73047    55901.994    471.17789   -384.97936    717.69531    332.71594    1142.8778   -384.97936            0    -9.367994            0            0            0            0            0            0 
10133000    829.24855    56677.882    459.27637   -403.01736    699.56699    296.54963    981.99717   -403.01736            0   -9.2397514            0            0            0            0            0            0 
10134000    849.61479    55491.835     481.9404   -412.17765     734.0887    321.91105    1009.4971   -412.17765            0    -9.437236            0            0            0            0            0            0 
10135000    1095.9161    56241.338    482.39617   -377.77711    734.78293    357.00581    1255.9006   -377.77711            0   -9.3114702            0            0            0            0            0            0 
10136000     809.9663    58423.875    490.39859   -396.25921    746.97217    350.71295    1040.8466   -396.25921            0   -8.9636223            0            0            0            0            0            0 
10137000    1031.9926    55635.926    474.45108   -399.19666      722.681    323.48434    1160.8359   -399.19666            0   -9.4127946            0            0            0            0            0            0 
10138000    813.51455    57949.051    485.31435    -393.8821    739.22787    345.34578    1032.8693    -393.8821            0   -9.0370685            0            0            0            0            0            0 
10139000    885.88899    56164.756    495.79479   -406.42554    755.19162    348.76609    1074.4025   -406.42554            0   -9.3241667            0            0            0            0            0            0 
10140000    892.22708    57225.834    494.31219   -396.01581    752.93333    356.91752    1101.5525   -396.01581            0   -9.1512786            0            0            0            0            0            0 
10141000    983.34065    56853.736    524.28866   -387.32227    798.59331    411.27104    1226.6113   -387.32227            0   -9.2111721            0            0            0            0            0            0 
10142000     980.4166    54832.202    478.15431   -408.51828    728.32175    319.80346    1103.8146   -408.51828            0   -9.5507662            0            0            0            0            0            0 
10143000    818.09344     57373.14    512.21124   -403.22632    780.19706    376.97074    1061.4927   -403.22632            0   -9.1277826            0            0            0            0            0            0 
10144000    795.54285    55802.349    463.18288   -408.31096    705.51735    297.20639    944.63509   -408.31096            0   -9.3847222            0            0            0            0            0            0 
10145000    791.02199    58563.275    474.41745   -390.00018    722.62978    332.62961    1008.2299   -390.00018            0   -8.9422859            0            0            0            0            0            0 
10146000    1093.6554    53586.501    481.87767   -410.10477    733.99315    323.88837    1178.5846   -410.10477            0   -9.7727885            0            0            0            0            0            0 
10147000    990.76822    58542.472    492.80181    -367.1092    750.63272    383.52352    1229.4235    -367.1092            0   -8.9454636            0            0            0            0            0            0 
10148000    989.70029    55566.196    471.97089   -397.02492     718.9032    321.87828    1123.9076   -397.02492            0   -9.4246067            0            0            0            0            0            0 
10149000     735.1543    59348.476    476.26015   -385.47435    725.43658    339.96223    976.26522   -385.47435            0   -8.8239763            0            0            0            0            0            0 
10150000     928.7694    55950.919    492.58071   -399.62442    750.29594    350.67153    1108.5351   -399.62442            0   -9.3598024            0            0            0            0            0            0 
10151000    856.13625     57665.18    490.69949   -388.71032    747.43048    358.72016      1078.72   -388.71032            0   -9.0815558            0            0            0            0            0            0 
10152000    783.82307    58358.513    464.81284   -392.02461     708.0001    315.97548    983.08656   -392.02461            0   -8.9736615            0            0            0            0            0            0 
10153000    903.47479    57054.492    483.42182   -392.56294    736.34518    343.78223    1095.5467   -392.56294            0    -9.178761            0            0            0            0            0            0 
10154000    933.46626    57472.977    503.59396   -389.27177    767.07126    377.79949    1160.2164   -389.27177            0   -9.1119265            0            0            0            0            0            0 
10155000    860.72677    57665.562    483.19725   -390.06467    736.00312    345.93846    1069.8037   -390.06467            0   -9.0814955            0            0            0            0            0            0 
10156000    856.56436    57121.852    484.05976   -400.68077    737.31689    336.63612    1050.2087   -400.68077            0   -9.1679371            0            0            0            0            0            0 
10157000    1058.2086    55524.185    484.06316   -388.00233    737.32207    349.31974    1206.2182   -388.00233            0   -9.4317376            0            0            0            0            0            0 
10158000     956.3805    58479.438    475.00881   -370.76491    723.53055    352.76564    1168.4268   -370.76491            0   -8.9551056            0            0            0            0            0            0 
10159000     979.3475    58142.352    502.58475   -373.23591    765.53405    392.29813    1222.7325   -373.23591            0   -9.0070237            0            0            0            0            0            0 
10160000    931.49086    54073.474    479.82054   -416.29949    730.85973    314.56024    1049.1397   -416.29949            0   -9.6847771            0            0            0            0            0            0 
10161000    979.18863    57209.517    476.38354   -375.37583    725.62452    350.24869     1167.227   -375.37583            0   -9.1538886            0            0            0            0            0            0 
10162000    866.15728    57317.246    472.33851   -388.79852    719.46316    330.66464     1054.697   -388.79852            0   -9.1366837            0            0            0            0            0            0 
10163000    921.51782     55750.71    446.13094   -397.79641    679.54394    281.74753    1031.0032   -397.79641            0   -9.3934148            0            0            0            0            0            0 
10164000    927.63244    55884.043    495.97522    -398.9823    755.46645    356.48415    1112.5152    -398.9823            0   -9.3710031            0            0            0            0            0            0 
10165000    786.31033    58507.506     475.7119   -389.76981    724.60148    334.83167    1005.7682   -389.76981            0   -8.9508096            0            0            0            0            0            0 
10166000    923.70947    54590.431    460.90765   -409.59869    702.05174    292.45305    1027.8601   -409.59869            0   -9.5930648            0            0            0            0            0            0 
10167000    807.72397    59293.958    509.80184   -390.32221    776.52707    386.20486    1084.6773   -390.32221            0   -8.8320895            0            0            0            0            0            0 
10168000    921.44264    54414.578    460.28188   -412.36417    701.09857     288.7344    1019.9736   -412.36417            0   -9.6240671            0            0            0            0            0            0 
10169000    944.41718    58177.059    517.67592   -376.66063    788.52082    411.86019    1213.1535   -376.66063            0   -9.0016504            0            0            0            0            0            0 
10170000    1025.5074    55386.332    498.98956   -399.92261    760.05787    360.13526    1188.4917   -399.92261            0   -9.4552127            0            0            0            0            0            0 
10171000    763.91457    59800.077    485.82691   -381.08582     740.0086    358.92278    1025.1501   -381.08582            0    -8.757339            0            0            0            0            0            0 
10172000    978.12468    56877.005    431.76709   -373.56801    657.66502    284.09701    1095.4444   -373.56801            0   -9.2074036            0            0            0            0            0            0 
10173000    1026.0025    55621.379      486.449   -390.59112    740.95616    350.36504    1182.6385   -390.59112            0   -9.4152564            0            0            0            0            0            0 
10174000     961.1917    56281.319    452.51225   -387.53059    689.26391    301.73333    1090.6846   -387.53059            0   -9.3048556            0            0            0            0            0            0 
10175000    829.29214    56529.311    467.89694   -407.14025    712.69778    305.55754    989.24424   -407.14025            0   -9.2640355            0            0            0            0            0            0 
10176000    909.12767    55800.765    498.46149   -397.32731    759.25352    361.92621    1101.7715   -397.32731            0   -9.3849886            0            0            0            0            0            0 
10177000    913.54117    58330.908    511.24686   -385.63161    778.72812    393.09651    1170.2427   -385.63161            0   -8.9779084            0            0            0            0            0            0 
10178000    950.39325    55901.325    464.01045     -392.771     706.7779    314.00691    1088.8278     -392.771            0   -9.3681062            0            0            0            0            0            0 
10179000    883.41688    56545.155    463.56346   -394.34324    706.09705     311.7538    1040.2663   -394.34324            0   -9.2614398            0            0            0            0            0            0 
10180000    849.83932    57531.263    468.23897   -388.69252    713.21876    324.52623    1037.5707   -388.69252            0   -9.1026951            0            0            0            0            0            0 
10181000    954.53166    58819.975    484.64435   -366.45512    738.20733    371.75221    1190.5772   -366.45512            0   -8.9032602            0            0            0            0            0            0 
10182000    883.39231    56639.673    492.03467   -393.97077    749.46422    355.49345    1085.2033   -393.97077            0   -9.2459847            0            0            0            0            0            0 
10183000    1091.2829    54754.571    504.27635   -388.37153    768.11067    379.73915    1251.1714   -388.37153            0   -9.5643074            0            0            0            0            0            0 
10184000    914.02743    57153.228    489.95725   -389.88014    746.29992    356.41978     1118.281   -389.88014            0   -9.1629041            0            0            0            0            0            0 
10185000    817.63999    56257.752      490.608   -400.37702    747.29112    346.91411    1017.7563   -400.37702            0   -9.3087534            0            0            0            0            0            0 
10186000    930.79068    55532.619     483.9814   -406.69438    737.19753    330.50315    1084.3378   -406.69438            0   -9.4303051            0            0            0            0            0            0 
10187000    960.43744    56939.656    496.83848   -386.24679    756.78136    370.53457     1168.088   -386.24679            0   -9.1972727            0            0            0            0            0            0 
10188000    864.53176    55578.552    474.50906   -411.47281    722.76933    311.29652    1012.0481   -411.47281            0   -9.4225116            0            0            0            0            0            0 
10189000    877.16489    58434.047    482.83363   -380.43116    735.44925    355.01809    1102.5386   -380.43116            0   -8.9620619            0            0            0            0            0            0 
10190000    968.04964    56884.052    498.37108   -390.36441     759.1158     368.7514    1171.8411   -390.36441            0    -9.206263            0            0            0            0            0            0 
10191000    820.39935    57823.193     474.4437   -391.92067    722.66977     330.7491    1022.5853   -391.92067            0   -9.0567387            0            0            0            0            0            0 
10192000    977.15327    57700.069    461.76495   -368.24356    703.35758    335.11402    1157.3849   -368.24356            0   -9.0760645            0            0            0            0            0            0 
10193000    952.97763    56167.567    478.32802   -394.40855    728.58634    334.17779    1114.8059   -394.40855            0      -9.3237            0            0            0            0            0            0 
10194000    729.25649    56170.273    491.70429   -426.95035    748.96099    322.01065    919.40723   -426.95035            0   -9.3232508            0            0            0            0            0            0 
10195000    889.96717    57310.018    473.50865   -393.44079    721.24551    327.80471    1071.6462   -393.44079            0    -9.137836            0            0            0            0            0            0 
10196000    964.33954     55545.03      476.976   -397.53805    726.52695     328.9889    1110.1688   -397.53805            0   -9.4281981            0            0            0            0            0            0 
10197000    875.63329    56319.563    454.15071   -397.47407    691.75961    294.28554    1013.4984   -397.47407            0    -9.298537            0            0            0            0            0            0 
10198000    853.77857    57886.489    495.90199   -398.13552    755.35491    357.21938    1077.9921   -398.13552            0   -9.0468355            0            0            0            0            0            0 
10199000    830.98194    54956.155    478.64274   -418.54598    729.06572    310.51975    976.53444   -418.54598            0   -9.5292246            0            0            0            0            0            0 
10200000    887.37554    56968.837    478.39781    -387.9068    728.69264    340.78584    1078.0459    -387.9068            0   -9.1925617            0            0            0            0            0            0 
10201000    827.46236     56770.53    464.76948   -394.87168    707.93405    313.06236    998.15151   -394.87168            0   -9.2246724            0            0            0            0            0            0 
10202000    790.78417     57776.08    469.81237   -396.41125    715.61535     319.2041    985.52269   -396.41125            0   -9.0641239            0            0            0            0            0            0 
10203000    849.80632    54594.764    495.26804   -427.04166    754.38928    327.34762    1003.9707   -427.04166            0   -9.5923036            0            0            0            0            0            0 
10204000    862.45074    56488.518    461.15633   -404.94773    702.43052    297.48279    1007.9931   -404.94773            0   -9.2707255            0            0            0            0            0            0 
10205000    864.39873    57502.613    476.58582   -392.94008    725.93263    332.99255    1057.8917   -392.94008            0   -9.1072304            0            0            0            0            0            0 
10206000    880.35578     57009.81    464.72184   -391.63536    707.86149    316.22613      1048.18   -391.63536            0    -9.185955            0            0            0            0            0            0 
10207000    854.53551    59576.089    478.80987   -381.33203     729.3203    347.98827    1090.4567   -381.33203            0   -8.7902639            0            0            0            0            0            0 
10208000    918.17605    56850.123     481.8231   -395.16864    733.91003    338.74139    1100.0018   -395.16864            0   -9.2117574            0            0            0            0            0            0 
10209000    824.73469    56637.424    485.80205   -409.28826    739.97074    330.68248    1011.9123   -409.28826            0   -9.2463518            0            0            0            0            0            0 
10210000    793.68646    57590.113    452.31405   -397.49386    688.96201    291.46816    958.07965   -397.49386            0   -9.0933932            0            0            0            0            0            0 
10211000    719.68422     55751.35    473.56607   -423.35019    721.33296    297.98277    883.14093   -423.35019            0    -9.393307            0            0            0            0            0            0 
10212000     934.9275    54050.633    478.51623   -416.06116    728.87301    312.81186      1049.79   -416.06116            0   -9.6888698            0            0            0            0            0            0 
10213000    786.55958    58609.403    463.91258   -389.27686    706.62883    317.35197    989.67008   -389.27686            0   -8.9352479            0            0            0            0            0            0 
10214000    925.42973    55474.238     462.6703   -399.71588     704.7366    305.02072    1053.7256   -399.71588            0   -9.4402296            0            0            0            0            0            0 
10215000    793.33168    59111.503    464.11619   -385.39314    706.93896    321.54582    1005.4617   -385.39314            0   -8.8593508            0            0            0            0            0            0 
10216000    826.16346    55346.732    472.64562   -414.16533    719.93094    305.76561    972.62436   -414.16533            0   -9.4619778            0            0            0            0            0            0 
10217000    925.40875    56462.192    476.80212   -382.62136     726.2621    343.64074    1105.6622   -382.62136            0    -9.275048            0            0            0            0            0            0 
10218000    899.83943    56739.498     497.1923   -395.28038    757.32029    362.03991    1106.6457   -395.28038            0   -9.2297176            0            0            0            0            0            0 
10219000    933.11858     55302.88    472.10335   -403.69204    719.10497    315.41293    1068.0065   -403.69204            0   -9.4694805            0            0            0            0            0            0 
10220000    816.52106     58609.06    487.92488   -390.39358    743.20422    352.81064    1050.7345   -390.39358            0   -8.9353002            0            0            0            0            0            0 
10221000    1009.1666    54786.444    489.07448   -411.41531    744.95528    333.53997    1139.8682   -411.41531            0   -9.5587431            0            0            0            0            0            0 
10222000    858.26811    56893.728    477.42367   -396.95792    727.20884    330.25091    1042.3874   -396.95792            0   -9.2046973            0            0            0            0            0            0 
10223000    877.98751    57785.941    463.15272   -393.82292    705.47142     311.6485    1051.5713   -393.82292            0    -9.062577            0            0            0            0            0            0 
10224000    941.29672    57346.224    474.89463   -382.58657    723.35662    340.77005    1128.0102   -382.58657            0   -9.1320668            0            0            0            0            0            0 
10225000    740.77912    58939.084    495.71921   -401.54428     755.0765    353.53222    990.28082   -401.54428            0   -8.8852679            0            0            0            0            0            0 
10226000     847.0765    57409.469    469.58625   -397.18562    715.27092    318.08531    1027.3071   -397.18562            0   -9.1220065            0            0            0            0            0            0 
10227000    791.18716    56910.016    462.43587   -401.22659    704.37951    303.15292    959.81785   -401.22659            0   -9.2020629            0            0            0            0            0            0 
10228000    815.66443    56653.856    509.48565   -409.72695    776.04546    366.31851    1040.2518   -409.72695            0     -9.24367            0            0            0            0            0            0 
10229000     1068.223    55622.085    478.81055   -381.14001    729.32133    348.18132    1214.7143   -381.14001            0   -9.4151369            0            0            0            0            0            0 
10230000     751.5313    57863.215    471.88525   -404.11565    718.77275     314.6571    948.85605   -404.11565            0   -9.0504744            0            0            0            0            0            0 
10231000    856.31358    54809.137    455.77732   -419.77837    694.23725    274.45887    958.94033   -419.77837            0   -9.5547854            0            0            0            0            0            0 
10232000    908.45427    57772.052     503.6211   -386.00007    767.11261    381.11254    1146.5272   -386.00007            0   -9.0647558            0            0            0            0            0            0 
10233000     920.3864    56208.526    495.35454   -404.46704    754.52103      350.054    1104.5349   -404.46704            0   -9.3169059            0            0            0            0            0            0 
10234000    866.47499    56300.322     455.1233    -392.3017    693.24105    300.93935    1012.3868    -392.3017            0   -9.3017149            0            0            0            0            0            0 
10235000    914.03709    58774.257    517.41284    -378.7128     788.1201     409.4073    1192.8854    -378.7128            0   -8.9101856            0            0            0            0            0            0 
10236000    850.70034    56165.232    504.83429   -415.37064    768.96053    353.58989     1050.409   -415.37064            0   -9.3240877            0            0            0            0            0            0 
10237000    860.56736    56714.693    486.61283   -399.15243    741.20571    342.05328    1053.8506   -399.15243            0   -9.2337543            0            0            0            0            0            0 
10238000    861.86841    57144.225    463.74759   -390.03147    706.37752    316.34605    1034.6185   -390.03147            0   -9.1643477            0            0            0            0            0            0 
10239000    813.71584    56577.705    467.14022   -410.85663    711.54515    300.68852    972.10807   -410.85663            0   -9.2561116            0            0            0            0            0            0 
10240000    842.24136    59426.507    447.66932   -376.92103    681.88719    304.96616    1034.9154   -376.92103            0   -8.8123899            0            0            0            0            0            0 
10241000    1140.7713    54694.715    487.36987   -395.35504    742.35884     347.0038    1256.9587   -395.35504            0   -9.5747742            0            0            0            0            0            0 
10242000    1012.6137    56981.601    454.01392   -373.31352    691.55125    318.23774    1159.7381   -373.31352            0   -9.1905025            0            0            0            0            0            0 
10243000    1011.4519    55450.546    456.39989   -394.97708    695.18555    300.20847    1118.1588   -394.97708            0   -9.4442631            0            0            0            0            0            0 
10244000    1072.8516    55983.838    454.43275   -368.24829    692.18921    323.94092    1199.8887   -368.24829            0   -9.3542987            0            0            0            0            0            0 
10245000    884.51292    57474.585    475.87108   -389.84741    724.84394    334.99654    1076.4022   -389.84741            0   -9.1116717            0            0            0            0            0            0 
10246000    885.43806     54815.27    482.42154   -419.49851    734.82156    315.32306    1023.1639   -419.49851            0   -9.5537164            0            0            0            0            0            0 
10247000    1086.2509    56456.133    498.30217   -368.85161    759.01085    390.15924    1284.5291   -368.85161            0   -9.2760435            0            0            0            0            0            0 
10248000     708.7944    61009.903    483.92136   -383.68974    737.10609    353.41635    984.07811   -383.68974            0    -8.583681            0            0            0            0            0            0 
10249000    921.98935     55539.72    496.79717   -410.98996    756.71843    345.72847    1092.5305   -410.98996            0   -9.4290995            0            0            0            0            0            0 
10250000    910.57956    56692.626    500.21651   -394.71333    761.92675    367.21343    1120.0841   -394.71333            0   -9.2373485            0            0            0            0            0            0 
10251000    875.40892    56862.367    483.03043   -394.08873    735.74903     341.6603    1067.6188   -394.08873            0    -9.209774            0            0            0            0            0            0 
10252000    958.90366    54699.859    453.69453   -413.63771    691.06475    277.42704    1042.3841   -413.63771            0   -9.5738738            0            0            0            0            0            0 
10253000    846.66848    56670.006     457.8386    -403.0418    697.37697    294.33518    994.08459    -403.0418            0   -9.2410356            0            0            0            0            0            0 
10254000    834.15951    56732.455     477.0138   -409.12336    726.58453    317.46117     1007.632   -409.12336            0   -9.2308635            0            0            0            0            0            0 
10255000    895.53142    58344.982    478.34109   -384.60806    728.60625     343.9982    1106.0074   -384.60806            0   -8.9757426            0            0            0            0            0            0 
10256000    801.62842     57034.07     453.7852   -400.40361    691.20286    290.79925    957.58047   -400.40361            0   -9.1820477            0            0            0            0            0            0 
10257000    1048.0234    57078.844    514.70087   -373.88036    783.98924    410.10888    1282.5217   -373.88036            0    -9.174845            0            0            0            0            0            0 
10258000    914.36797    56401.081    477.62133   -395.97275    727.50991    331.53717    1083.6523   -395.97275            0   -9.2850976            0            0            0            0            0            0 
10259000    796.59991    58031.943    481.71603   -401.72195    733.74693    332.02499    1006.2165   -401.72195            0   -9.0241601            0            0            0            0            0            0 
10260000    1079.7175    56569.469    461.93726   -377.54816    703.62004    326.07187    1216.8471   -377.54816            0    -9.257459            0            0            0            0            0            0 
10261000    921.31889     59539.38      487.224   -362.94877    742.13665    379.18787    1179.1882   -362.94877            0   -8.7956836            0            0            0            0            0            0 
10262000    1149.6565    53875.299    522.43174   -404.95569    795.76486    390.80917    1294.1126   -404.95569            0   -9.7204016            0            0            0            0            0            0 
10263000    974.48125    58092.856    492.69354   -372.84823    750.46781    377.61959    1203.2242   -372.84823            0   -9.0146979            0            0            0            0            0            0 
10264000    1040.3171    54859.563    474.52385   -387.99575    722.79185     334.7961    1167.1231   -387.99575            0   -9.5460029            0            0            0            0            0            0 
10265000    1009.6645    57544.645    498.64355   -374.31909    759.53083    385.21174    1232.5521   -374.31909            0   -9.1005782            0            0            0            0            0            0 
10266000    992.30375    57181.465    531.62003   -392.02823    809.76041    417.73219     1245.247   -392.02823            0   -9.1583792            0            0            0            0            0            0 
10267000    924.43451    56216.194    469.74121   -396.77898    715.50696    318.72798    1076.6307   -396.77898            0    -9.315635            0            0            0            0            0            0 
10268000    880.48101    57064.947    468.71258   -397.50912    713.94016    316.43103     1049.197   -397.50912            0   -9.1770792            0            0            0            0            0            0 
10269000    805.13048    60798.245    476.07008   -365.35818    725.14706    359.78889     1073.682   -365.35818            0   -8.6135635            0            0            0            0            0            0 
10270000    923.63386    53955.842     493.6212   -420.88446    751.88082    330.99636    1057.7952   -420.88446            0   -9.7058914            0            0            0            0            0            0 
10271000    815.43423    57806.499    484.03015   -393.16899    737.27179    344.10281    1031.5534   -393.16899            0   -9.0593541            0            0            0            0            0            0 
10272000    728.37829    57203.547    438.92092   -401.73677    668.56168    266.82491    874.47818   -401.73677            0   -9.1548439            0            0            0            0            0            0 
10273000    785.15701    57864.335    467.76185   -396.91709    712.49202    315.57493    978.16263   -396.91709            0   -9.0502992            0            0            0            0            0            0 
10274000    926.33771    58238.346    475.26111    -367.8186    723.91483    356.09624     1142.878    -367.8186            0   -8.9921775            0            0            0            0            0            0 
10275000      855.023    56523.416    482.13842   -400.26321    734.39031     334.1271    1038.9534   -400.26321            0   -9.2650018            0            0            0            0            0            0 
10276000    839.84812    58394.831    483.49691   -384.80973    736.45956    351.64983    1066.8886   -384.80973            0   -8.9680805            0            0            0            0            0            0 
10277000    839.52323    58457.816    472.59524   -381.54893    719.85421    338.30527    1054.0385   -381.54893            0   -8.9584178            0            0            0            0            0            0 
10278000    898.30207    55112.757    466.95203   -406.48794     711.2585    304.77057    1026.7926   -406.48794            0   -9.5021475            0            0            0            0            0            0 
10279000    828.87837    56014.761    462.50299   -409.62038    704.48174    294.86137    971.98688   -409.62038            0   -9.3491347            0            0            0            0            0            0 
10280000    800.65652    56335.936    480.96689   -408.75793    732.60585    323.84792    981.66878   -408.75793            0   -9.2958347            0            0            0            0            0            0 
10281000    831.69764    55617.636    467.83366   -418.48347     712.6014    294.11793    968.72965   -418.48347            0     -9.41589            0            0            0            0            0            0 
10282000    842.14541    57640.989    482.38571   -390.44141    734.76699    344.32558    1052.2622   -390.44141            0   -9.0853671            0            0            0            0            0            0 
10283000    856.59981    53976.918    501.15408   -433.68647    763.35485    329.66838     1003.982   -433.68647            0   -9.7021017            0            0            0            0            0            0 
10284000    834.59363    56735.949    487.39369   -399.32343    742.39511    343.07168    1033.6442   -399.32343            0   -9.2302949            0            0            0            0            0            0 
10285000    918.40618      56305.1    474.48079   -397.26199    722.72626    325.46427    1079.6155   -397.26199            0   -9.3009256            0            0            0            0            0            0 
10286000    811.54508    57380.535    487.99164   -404.00513     743.3059    339.30078    1018.4311   -404.00513            0   -9.1266061            0            0            0            0            0            0 
10287000    875.83384    57316.868    465.17278   -393.71107    708.54836    314.83729    1046.9536   -393.71107            0   -9.1367438            0            0            0            0            0            0 
10288000    1034.9634    55507.689    505.01499   -396.76465    769.23577    372.47112    1210.2975   -396.76465            0   -9.4345406            0            0            0            0            0            0 
10289000    753.05074    60416.963    480.17932   -377.98913    731.40622    353.41709    1016.9447   -377.98913            0   -8.6679224            0            0            0            0            0            0 
10290000    727.25148    57192.899    471.16615   -401.09986    717.67742    316.57755    923.17784   -401.09986            0   -9.1565484            0            0            0            0            0            0 
10291000     781.6262    55581.834    455.20725   -424.04504    693.36892    269.32388    902.91323   -424.04504            0   -9.4219552            0            0            0            0            0            0 
10292000    841.60725    58179.495    505.92254   -384.00507    770.61815    386.61308    1100.7069   -384.00507            0   -9.0012735            0            0            0            0            0            0 
10293000    857.43343    55977.152    489.04433   -409.62567    744.90935    335.28368     1035.266   -409.62567            0   -9.3554161            0            0            0            0            0            0 
10294000    1047.1474    56748.986    460.97609   -377.74686    702.15599    324.40913    1191.0552   -377.74686            0   -9.2281745            0            0            0            0            0            0 
10295000    941.45396    57248.598     447.4831   -384.60112    681.60354    297.00242    1083.0337   -384.60112            0   -9.1476396            0            0            0            0            0            0 
10296000    746.30877    58004.693    460.95975   -399.43297    702.13109    302.69812    934.02978   -399.43297            0   -9.0283996            0            0            0            0            0            0 
10297000    790.54289    55506.418     457.1744   -419.95919    696.36528    276.40609    916.35385   -419.95919            0   -9.4347567            0            0            0            0            0            0 
10298000    906.69599    58256.555    497.38229    -380.8045    757.60969    376.80519    1147.1451    -380.8045            0   -8.9893669            0            0            0            0            0            0 
10299000    958.93878     55644.74    464.29075   -393.33026    707.20485    313.87459     1092.074   -393.33026            0   -9.4113037            0            0            0            0            0            0 
10300000    1028.5594    56952.606     500.1021    -376.7154    761.75248    385.03709    1239.3537    -376.7154            0   -9.1951815            0            0            0            0            0            0 
10301000    865.28346    57042.588    487.19213   -396.51512    742.08809    345.57297    1065.4089   -396.51512            0   -9.1806764            0            0            0            0            0            0 
10302000    869.39341    55631.324    484.56358   -405.89472     738.0843    332.18958    1037.5509   -405.89472            0   -9.4135733            0            0            0            0            0            0 
10303000     890.5468    58377.612    510.96537   -384.26101    778.29935    394.03833    1152.2299   -384.26101            0   -8.9707257            0            0            0            0            0            0 
10304000    825.46592    57035.745    489.76016   -401.89045    745.99971    344.10926    1030.7383   -401.89045            0    -9.181778            0            0            0            0            0            0 
10305000    931.52285    54741.422    474.56404   -416.97163    722.85306    305.88144    1049.5604   -416.97163            0   -9.5666047            0            0            0            0            0            0 
10306000    834.98601    58090.252    462.39783   -389.66015    704.32157    314.66142    1022.0505   -389.66015            0    -9.015102            0            0            0            0            0            0 
10307000    837.43852    55935.857    461.49085   -401.38344    702.94006    301.55662    984.71141   -401.38344            0   -9.3623227            0            0            0            0            0            0 
10308000    872.36949    57623.733    490.29429   -392.12646    746.81329    354.68684    1087.8114   -392.12646            0   -9.0880877            0            0            0            0            0            0 
10309000    931.09818    55280.539     501.8937   -407.29739    764.48144    357.18405    1107.8447   -407.29739            0   -9.4733076            0            0            0            0            0            0 
10310000    932.62177     55860.18    453.58727   -401.92111    690.90138    288.98027    1048.7531   -401.92111            0   -9.3750065            0            0            0            0            0            0 
10311000    808.13493    54718.528     473.7911    -430.6209    721.67573    291.05482    935.95748    -430.6209            0   -9.5706074            0            0            0            0            0            0 
10312000    948.16142    57283.917    468.29382   -376.52554     713.3023    336.77676    1128.8966   -376.52554            0   -9.1419996            0            0            0            0            0            0 
10313000    974.85376    55581.292    476.18059   -389.30427    725.31538    336.01111    1126.2238   -389.30427            0   -9.4220469            0            0            0            0            0            0 
10314000    795.40279    58619.882    497.50963   -389.08074    757.80365    368.72291    1048.7214   -389.08074            0   -8.9336506            0            0            0            0            0            0 
10315000    961.97294    55666.371    475.69866   -399.62555    724.58132    324.95577    1105.9209   -399.62555            0   -9.4076465            0            0            0            0            0            0 
10316000     885.5215    58356.208     457.9648   -376.68772     697.5692    320.88148    1074.5182   -376.68772            0    -8.974016            0            0            0            0            0            0 
10317000    891.07509    56263.988    486.94819   -405.82682    741.71653    335.88971    1067.0637   -405.82682            0   -9.3077217            0            0            0            0            0            0 
10318000    890.42252    57464.709    489.68282   -383.46734     745.8819    362.41456    1108.6455   -383.46734            0   -9.1132376            0            0            0            0            0            0 
10319000     932.2678    56001.317    491.15501   -405.86074    748.12433     342.2636     1103.667   -405.86074            0   -9.3513791            0            0            0            0            0            0 
10320000    806.98295    57116.588    470.11046   -396.76608    716.06941    319.30333    991.50952   -396.76608            0    -9.168782            0            0            0            0            0            0 
10321000    925.04161     56397.53    486.02805   -394.08797    740.31497      346.227    1107.0738   -394.08797            0   -9.2856824            0            0            0            0            0            0 
10322000    1128.7178    55737.819    508.14582   -373.51837    774.00463    400.48626    1317.9971   -373.51837            0   -9.3955873            0            0            0            0            0            0 
10323000    737.08011    60519.957    478.02366   -380.54001    728.12273    347.58272    998.14548   -380.54001            0   -8.6531711            0            0            0            0            0            0 
10324000    950.86502    54339.105    485.10604   -417.73744    738.91058    321.17313    1074.7147   -417.73744            0   -9.6374341            0            0            0            0            0            0 
10325000    942.49203    57974.783    476.75074    -374.7411    726.18384    351.44274    1148.3223    -374.7411            0   -9.0330575            0            0            0            0            0            0 
10326000    833.19153    55991.015    451.61084   -411.10842    687.89089    276.78248    957.14295   -411.10842            0   -9.3530997            0            0            0            0            0            0 
10327000    989.69429    57988.636    482.33404   -372.28351    734.68828    362.40477     1199.394   -372.28351            0   -9.0308995            0            0            0            0            0            0 
10328000    851.68331    55509.131    468.90878   -410.36672    714.23901    303.87229    993.34718   -410.36672            0   -9.4342955            0            0            0            0            0            0 
10329000    833.05927    57273.407    446.40564    -387.1771    679.96236    292.78526    988.61792    -387.1771            0   -9.1436772            0            0            0            0            0            0 
10330000    940.14408    55441.381    475.33685   -406.96479    724.03021    317.06542    1077.2243   -406.96479            0   -9.4458243            0            0            0            0            0            0 
10331000    818.84296    58385.544    501.99292   -391.45049    764.63257    373.18208    1070.4213   -391.45049            0   -8.9695071            0            0            0            0            0            0 
10332000    928.26038     55365.94    480.64016   -399.73706    732.10817    332.37111       1081.9   -399.73706            0    -9.458695            0            0            0            0            0            0 
10333000    881.31574    56142.873    484.53211   -410.73084    738.03637    327.30553    1048.9147   -410.73084            0    -9.327801            0            0            0            0            0            0 
10334000    919.76153    57024.281    482.12623   -393.23388    734.37175    341.13787    1106.0489   -393.23388            0   -9.1836238            0            0            0            0            0            0 
10335000    928.11137        58830    483.37572   -376.61464    736.27497    359.66033    1155.9569   -376.61464            0    -8.901743            0            0            0            0            0            0 
10336000    843.17781    57540.454    471.61436     -394.781    718.36014    323.57914    1031.1474     -394.781            0   -9.1012411            0            0            0            0            0            0 
10337000    759.55386    55661.638    450.64484   -422.72291    686.41949    263.69658    880.27802   -422.72291            0   -9.4084465            0            0            0            0            0            0 
10338000    719.72971    59673.288    469.98779   -386.61532    715.88256    329.26724    955.62907   -386.61532            0   -8.7759459            0            0            0            0            0            0 
10339000    937.99191    56300.161    515.12652   -405.68894     784.6376    378.94865    1149.1151   -405.68894            0   -9.3017415            0            0            0            0            0            0 
10340000    878.90484    57166.498    486.58162    -394.1401    741.15818    347.01808     1079.774    -394.1401            0    -9.160777            0            0            0            0            0            0 
10341000    943.65875    55083.187    458.39915   -403.12505    698.23081    295.10576    1053.1768   -403.12505            0   -9.5072485            0            0            0            0            0            0 
10342000    912.53244    59572.003    498.71025   -366.01323    759.63243    393.61919    1186.4242   -366.01323            0   -8.7908668            0            0            0            0            0            0 
10343000    963.19222     55403.64    493.91723   -406.10485    752.33173    346.22688    1124.4913   -406.10485            0   -9.4522589            0            0            0            0            0            0 
10344000    926.24727    56612.933    477.62483   -383.69386    727.51524    343.82138    1108.5696   -383.69386            0   -9.2503518            0            0            0            0            0            0 
10345000    800.14666    58107.462    492.10505   -401.10343    749.57143    348.46799    1026.5425   -401.10343            0   -9.0124319            0            0            0            0            0            0 
10346000    964.66306     54663.48    498.44896   -414.50862    759.23443    344.72582    1113.7656   -414.50862            0   -9.5802453            0            0            0            0            0            0 
10347000    739.00396     58910.19    489.30327   -396.42224    745.30378    348.88153    983.79286   -396.42224            0   -8.8896258            0            0            0            0            0            0 
10348000    1063.5799    53671.281    484.86511   -407.62473    738.54359    330.91887     1163.426   -407.62473            0   -9.7573514            0            0            0            0            0            0 
10349000    893.55308     58173.85    464.23924   -381.47238    707.12639    325.65401    1083.7497   -381.47238            0   -9.0021469            0            0            0            0            0            0 
10350000    882.29613    56823.941    480.49476   -400.06732    731.88671    331.81939    1062.9949   -400.06732            0   -9.2160018            0            0            0            0            0            0 
10351000    801.78989    56949.508    482.33536   -405.53081     734.6903    329.15949    995.08621   -405.53081            0   -9.1956817            0            0            0            0            0            0 
10352000    1064.7451    54235.458    484.32455   -392.71787    737.72022    345.00235    1187.1822   -392.71787            0   -9.6558518            0            0            0            0            0            0 
10353000    739.91586    59237.733    486.77239   -393.57083    741.44876    347.87792     987.1072   -393.57083            0   -8.8404724            0            0            0            0            0            0 
[...]
14939000    808.75523    58934.171     468.8741   -380.51377    714.18619    333.67242     1028.793   -380.51377            0   -8.8860086            0            0            0            0            0            0 
14940000    951.41729    57342.392    489.76389   -387.75644    746.00539    358.24895    1153.9002   -387.75644            0    -9.132677            0            0            0            0            0            0 
14941000    833.63066    58123.922    499.25489   -394.04068    760.46202    366.42134    1073.0715   -394.04068            0   -9.0098797            0            0            0            0            0            0 
14942000    1095.6769    55674.625    501.11768    -383.5935    763.29941     379.7059    1269.3487    -383.5935            0   -9.4062519            0            0            0            0            0            0 
14943000    711.91519    59564.622    482.16521   -396.15971    734.43113    338.27142    956.70426   -396.15971            0   -8.7919561            0            0            0            0            0            0 
14944000    969.44679    53731.702    476.20849   -427.76927    725.35788    297.58862    1057.2682   -427.76927            0   -9.7463792            0            0            0            0            0            0 
14945000    870.63338    58247.115    468.52186    -385.2372    713.64966    328.41246    1067.9933    -385.2372            0   -8.9908238            0            0            0            0            0            0 
14946000    1015.8736    55735.294    458.10623   -383.60284    697.78463     314.1818    1139.9267   -383.60284            0    -9.396013            0            0            0            0            0            0 
14947000    819.86098    57202.035     458.4197   -401.85589     698.2621    296.40621     980.3613   -401.85589            0   -9.1550859            0            0            0            0            0            0 
14948000     953.8485     57012.19    491.81286   -382.66188    749.12637    366.46449    1159.5555   -382.66188            0   -9.1855715            0            0            0            0            0            0 
14949000    926.21292    56622.026    505.36374   -394.74248    769.76698     375.0245    1139.8672   -394.74248            0   -9.2488663            0            0            0            0            0            0 
14950000    810.63637    58081.844    475.73047   -390.61275    724.62977    334.01702     1020.678   -390.61275            0   -9.0164071            0            0            0            0            0            0 
14951000    1037.1815     55870.09    502.26307   -389.84443    765.04407    375.19963    1220.3034   -389.84443            0   -9.3733435            0            0            0            0            0            0 
14952000    827.99427      56255.4     485.9816   -403.86067    740.24423    336.38357    1015.6927   -403.86067            0   -9.3091426            0            0            0            0            0            0 
14953000    1003.0383    55032.591    504.53841   -401.70382    768.50984    366.80602    1171.8384   -401.70382            0   -9.5159892            0            0            0            0            0            0 
14954000     915.4106    57141.422    491.64083   -394.37337    748.86433    354.49096    1117.3475   -394.37337            0   -9.1647973            0            0            0            0            0            0 
14955000    791.24454    57069.171    458.08308    -405.3629    697.74938    292.38648    950.93561    -405.3629            0      -9.1764            0            0            0            0            0            0 
14956000    761.90213    58462.926    470.55911   -390.05386    716.75278    326.69892    976.31328   -390.05386            0    -8.957635            0            0            0            0            0            0 
14957000    907.45973    55177.032    464.20442   -408.66466    707.07336     298.4087    1028.6419   -408.66466            0   -9.4910785            0            0            0            0            0            0 
14958000     896.5085    58865.349    505.06934   -380.35801    769.31856    388.96055    1158.6048   -380.35801            0   -8.8963975            0            0            0            0            0            0 
14959000    958.86181     55362.22    494.59477   -399.89339    753.36376    353.47037    1127.6565   -399.89339            0   -9.4593307            0            0            0            0            0            0 
14960000    784.16791    59210.972    487.83492    -384.4742    743.06719    358.59298    1035.7465    -384.4742            0    -8.844468            0            0            0            0            0            0 
14961000    972.93728    55138.472    461.24544   -406.34412    702.56625    296.22213     1078.598   -406.34412            0   -9.4977159            0            0            0            0            0            0 
14962000    887.77837    57094.826    446.81194   -386.24681    680.58124    294.33443    1033.5604   -386.24681            0   -9.1722768            0            0            0            0            0            0 
14963000     916.6182    57597.587    494.43032   -383.90301    753.11327    369.21026    1139.1711   -383.90301            0   -9.0922134            0            0            0            0            0            0 
14964000    980.82357    55811.872    456.07947   -390.95676    694.69748    303.74072    1102.0908   -390.95676            0    -9.383121            0            0            0            0            0            0 
14965000    921.83752    57119.557    483.35781   -385.45235    736.24769    350.79533    1118.7138   -385.45235            0   -9.1683054            0            0            0            0            0            0 
14966000    776.41007     59782.89    478.78466   -377.51245     729.2819    351.76945    1028.6998   -377.51245            0   -8.7598566            0            0            0            0            0            0 
14967000    941.50083    55353.985    455.55472   -402.21397    693.89818    291.68421      1051.74   -402.21397            0   -9.4607379            0            0            0            0            0            0 
14968000    734.38405    59399.538    499.17655   -389.93948     760.3427    370.40322    1006.5864   -389.93948            0   -8.8163908            0            0            0            0            0            0 
14969000    943.90329    54919.567    470.70632   -404.14602    716.97701    312.83099    1068.8461   -404.14602            0   -9.5355731            0            0            0            0            0            0 
14970000    806.87199    58119.143     474.8497   -394.56419    723.28818    328.72399    1012.6352   -394.56419            0   -9.0106205            0            0            0            0            0            0 
14971000    951.74503    58166.985    513.42011   -375.58103     782.0384    406.45737    1213.8282   -375.58103            0   -9.0032094            0            0            0            0            0            0 
14972000    846.79438    57803.222    487.84358   -392.18444    743.08039    350.89594    1064.7442   -392.18444            0   -9.0598678            0            0            0            0            0            0 
14973000    865.71219    55137.252    485.58685   -414.48398    739.64294    325.15896    1021.2957   -414.48398            0   -9.4979261            0            0            0            0            0            0 
14974000    764.45303     57315.32    479.69411   -410.20249    730.66716    320.46467    959.45961   -410.20249            0   -9.1369906            0            0            0            0            0            0 
14975000    925.51352    56064.611    523.12146   -410.23355    796.81543    386.58188    1143.3232   -410.23355            0   -9.3408219            0            0            0            0            0            0 
14976000    898.73983    56588.807    471.60002    -396.2582     718.3383    322.08009    1063.8008    -396.2582            0   -9.2542955            0            0            0            0            0            0 
14977000    889.86362    55992.399    489.51767   -415.42176    745.63034    330.20858    1056.8638   -415.42176            0   -9.3528685            0            0            0            0            0            0 
14978000    889.35846    56683.521    473.42394   -394.00796    721.11647    327.10851    1062.3154   -394.00796            0   -9.2388324            0            0            0            0            0            0 
14979000    1019.1056    56083.686    471.41288   -381.50393    718.05324    336.54931    1170.0993   -381.50393            0   -9.3376448            0            0            0            0            0            0 
14980000    895.53401    58886.151    493.75722   -374.78127    752.08801    377.30674    1146.3861   -374.78127            0   -8.8932549            0            0            0            0            0            0 
14981000    1002.0624    56321.333    481.22692   -384.90144    733.00193    348.10049    1171.1834   -384.90144            0   -9.2982449            0            0            0            0            0            0 
14982000    811.91656    57082.409    497.65029   -401.81718     758.0179    356.20073    1032.1118   -401.81718            0   -9.1742721            0            0            0            0            0            0 
14983000    857.78293    55808.122    472.29186   -411.30728     719.3921    308.08482     1006.238   -411.30728            0   -9.3837514            0            0            0            0            0            0 
14984000    725.67114    58222.305    510.25414   -406.40639    777.21601    370.80962    986.98613   -406.40639            0   -8.9946549            0            0            0            0            0            0 
14985000    901.77737    55832.804    450.67345   -399.07873    686.46306    287.38434    1021.6693   -399.07873            0   -9.3796031            0            0            0            0            0            0 
14986000     716.6201    58858.286    490.53333   -389.75957    747.17739    357.41782    972.55572   -389.75957            0   -8.8974651            0            0            0            0            0            0 
14987000    1005.2453    53430.489    461.33518   -415.55504    702.70295    287.14791    1070.4641   -415.55504            0   -9.8013242            0            0            0            0            0            0 
14988000    883.44952    57470.804    486.85251   -395.62429    741.57079     345.9465    1086.4121   -395.62429            0    -9.112271            0            0            0            0            0            0 
14989000    916.71875    55394.057    497.58238   -410.21315    757.91447    347.70132    1088.2868   -410.21315            0    -9.453894            0            0            0            0            0            0 
14990000    903.31398     56463.63    474.13646   -395.38312    722.20179    326.81866    1070.6653   -395.38312            0   -9.2748118            0            0            0            0            0            0 
14991000     978.4245    57650.589    462.13436   -368.09026    703.92026    335.82999    1158.4646   -368.09026            0   -9.0838541            0            0            0            0            0            0 
14992000    926.26868    57365.968     478.5172   -389.34286     728.8745    339.53164    1114.4701   -389.34286            0   -9.1289236            0            0            0            0            0            0 
14993000    938.01408    55652.379    515.92281   -412.73695    785.85049    373.11354    1134.4366   -412.73695            0   -9.4100118            0            0            0            0            0            0 
14994000    934.27564    55903.471    503.30314   -404.19048     766.6283    362.43781    1124.1479   -404.19048            0   -9.3677464            0            0            0            0            0            0 
14995000    946.57421    55819.591    462.66601   -398.50919    704.73006    306.22087    1076.7999   -398.50919            0   -9.3818234            0            0            0            0            0            0 
14996000    929.85732    57013.955    471.63633   -390.33838     718.3936    328.05522    1101.2223   -390.33838            0   -9.1852872            0            0            0            0            0            0 
14997000    1035.1557    56346.442    459.30272   -382.47575    699.60713    317.13138    1167.7758   -382.47575            0   -9.2941014            0            0            0            0            0            0 
14998000    958.91157    58816.857    469.48428   -376.89567    715.11561    338.21994    1160.7585   -376.89567            0   -8.9037322            0            0            0            0            0            0 
14999000    800.93629    59037.689    440.59131   -373.50805    671.10601    297.59796    987.20743   -373.50805            0   -8.8704276            0            0            0            0            0            0 
15000000    773.02906    56034.062    449.23053   -421.15752    684.26522    263.10771    894.82653   -421.15752            0   -9.3459144            0            0            0            0            0            0 
Loop time of 1450.08 on 8 procs for 5000000 steps with 512 atoms

Pair  time (%) = 821.138 (56.6271)
Bond  time (%) = 0.466645 (0.0321807)
Neigh time (%) = 37.8881 (2.61283)
Comm  time (%) = 429.026 (29.5864)
Outpt time (%) = 0.304487 (0.0209979)
Other time (%) = 161.256 (11.1205)

Nlocal:    64 ave 73 max 58 min
Histogram: 2 1 0 0 3 0 0 1 0 1
Nghost:    1290.25 ave 1340 max 1243 min
Histogram: 1 2 0 0 1 0 1 2 0 1
Neighs:    5922.12 ave 6750 max 5122 min
Histogram: 1 2 0 1 0 0 1 1 1 1

Total # of neighbors = 47377
Ave neighs/atom = 92.5332
Ave special neighs/atom = 0
Neighbor list builds = 101031
Dangerous builds = 0

Averages
Group Pressure(MPa) Volume(m3) Temperature(K) PE(J) KE(J) ET(J) ET^2(J) H(J) H^2(J^2) V^2(m6) V*H(m3*J) Hconf(J) Uext*Hconf(J^2) V*Hconf(m3*J) Uext(J)
Block1 89.958300120983381021 5.6903665498448635575e-26 480.28143346266352864 -2.7471553857364777428e-18 5.0826679164861580362e-18 2.3355125307496814489e-18 5.4964263565588565439e-36 7.4478304702086551023e-18 5.5788944588328643492e-35 3.2402520042959169962e-51 4.2373359072265583911e-43 2.365162553722494755e-18 -6.4676001306273058821e-36 1.3450889456117188818e-43 -2.7471553857364777428e-18
Block2 89.914083070342456949 5.6878477175216711149e-26 479.30061699236892991 -2.7493400190751395204e-18 5.0722882431150919583e-18 2.3229482240399458898e-18 5.4398619218644913112e-36 7.431036471083677856e-18 5.5557247240071572623e-35 3.2372649710265061879e-51 4.2261741415836802197e-43 2.358748227968586668e-18 -6.4539671410085911404e-36 1.3410552451043488597e-43 -2.7493400190751395204e-18
Block3 90.051807415919938649 5.6894411630558112283e-26 480.46700654885000858 -2.7494035621906525848e-18 5.0846317783088415327e-18 2.3352282161181970369e-18 5.4976428976963233157e-36 7.4522860277455560567e-18 5.5876242116252767102e-35 3.239140421576290819e-51 4.2393068482122166194e-43 2.3676542494367122128e-18 -6.4786315539144757838e-36 1.3463866030949848386e-43 -2.7494035621906525848e-18
Block4 89.74721174625256026 5.6926477132374792217e-26 480.95254685428704988 -2.7493105913335413413e-18 5.0897700992195832436e-18 2.3404595078860530728e-18 5.5224010899668262609e-36 7.4421945609477686632e-18 5.5738049467774876345e-35 3.242865697274590509e-51 4.2354103668499429354e-43 2.3524244617281684713e-18 -6.4391816517377597372e-36 1.3380363195268257181e-43 -2.7493105913335413413e-18
Block5 89.879522450960394053 5.6860294025523040916e-26 480.67442600131346353 -2.7539156709813820534e-18 5.0868268333803792056e-18 2.3329111623990017744e-18 5.4860683778824592908e-36 7.4367087992231931568e-18 5.5632425343251828142e-35 3.2353253072669778832e-51 4.2276620706528336045e-43 2.3498819658428035512e-18 -6.4424386462567775196e-36 1.3353270545288566945e-43 -2.7539156709813820534e-18
Ave_blocks 89.910184960891754713 5.6892665092424269907e-26 480.3352059718965279 -2.7498250458634384945e-18 5.0832369741020104871e-18 2.3334119282385758445e-18 5.4884801287937920127e-36 7.4420112658417710914e-18 5.5718581751135935403e-35 3.238969680288056123e-51 4.2331778669050457168e-43 2.3587742917397532858e-18 -6.4563638247089817453e-36 1.3411788335733470782e-43 -2.7498250458634384945e-18
Stdev_blocks 0.099887578668487297939 2.2434332353702741458e-29 0.56335019744787073748 2.2153041319042073919e-21 5.9617586165461825317e-21 5.7813438479538255941e-21 2.708238196332291003e-38 7.5898582458741547869e-21 1.1281707553166230243e-37 2.5706008710488665704e-54 5.2785214569232370314e-46 6.91459355585957228e-21 1.4946491831582561899e-38 4.1603804194066065243e-46 2.2153041319042073919e-21






Properties
Group rho(kg/m3) Cp(J/K) Cp_conf(J/K) Cp_id(J/K) Cp2(J/K) kT(1/Pa) aP(1/K) aP2(1/K) Cv(J/K) uJT(K/Pa) sos(m/s) Cv2(J/K) uJT2(K/Pa) sos2(m/s) CvNVT(J/K)
Block1 239.68990469607098248 1.0009145600129638215e-19 1.200240885735175836e-22 3.852861476812771966e-20 3.8648638856701237244e-20 5.8963447544278417713e-09 -0.00041530457575417504233 -0.00042778198194315278195 9.9292014656940181013e-20 -6.8191480508162211575e-07 844.54935871298732764 3.7800439089348077834e-20 -1.774832243264172108e-06 850.55494489647151113 1.3127443694960805481e-20
Block2 239.79605006238091391 1.0623284105289770762e-19 1.1143047084369063015e-21 3.8478422032653734307e-20 3.9592726741090643618e-20 5.5894151450496181208e-09 -0.00026952860872443749982 -0.00031308954868648379089 1.0587851807269707599e-19 -6.0458080200924020518e-07 865.2094910677194548 3.9114617957719937656e-20 -1.6521693539850408055e-06 869.02838833964051446 1.3801038973944232529e-20
Block3 239.72889022468763187 1.0657450451554222326e-19 7.4820463317390054461e-22 3.853811281356113143e-20 3.9286317446735034984e-20 5.7399958603869540498e-09 -0.00034601301825259940569 -0.00037298599955539840601 1.0600433173693342008e-19 -6.2259716733388426446e-07 854.76922557362445332 3.8623785747234059342e-20 -1.7077272538641009199e-06 859.76005583641983776 1.3915653168320646863e-20
Block4 239.59385592163150136 1.101527388413719761e-19 -1.3239122370984597498e-21 3.8562965977378780604e-20 3.723905374028031935e-20 5.9308399343389321275e-09 -0.00064290220917808760335 -0.00061387948386629935874 1.0824468699889488787e-19 -6.7659193201062832393e-07 846.249481198006265 3.5499384947710525218e-20 -1.9800138751572996639e-06 859.19741960012242998 1.3980976330329119919e-20
Block5 239.87273358203134421 1.0275601178729804838e-19 -3.1542922947565559737e-22 3.8548729538740064156e-20 3.8233300309264410064e-20 5.9156640411059847607e-09 -0.00048098381944367885922 -0.00045359527693076710569 1.0168715984917564587e-19 -6.8128570459502779603e-07 843.87548010008310939 3.7282709385682080536e-20 -1.811448061131871481e-06 850.10969314126407426 1.3665965941325698918e-20
Ave_blocks 239.73628689736045771 1.0516151043968126268e-19 6.8638392722041811805e-23 3.8531369026092283624e-20 3.8600007418814330255e-20 5.814451947061866166e-09 -0.00043094644627059575798 -0.0004362664581964202995 1.0422134226292823013e-19 -6.5339408220608056225e-07 850.93060733048400834 3.7664187425538937321e-20 -1.7852381574804966992e-06 857.7301003627837872 1.3698215621776101043e-20
Stdev_blocks 0.094532466233699305458 3.451044429556959827e-21 8.5376507351317445888e-22 2.8831245032211664769e-23 8.3012615225710398657e-22 1.3166757730308894112e-10 0.00012723447467567731311 0.00010108969152773826451 3.2506287744575108637e-21 3.304754380466412342e-08 8.1367021184466512551 1.2549930236044163781e-21 1.1175694067014179618e-07 6.9782306978880406234 3.0483634331536210836e-22






