LAMMPS (28 Oct 2012)
Scanning data file ...
Reading data file ...
  orthogonal box = (0 0 0) to (100 100 100)
  2 by 2 by 2 MPI processor grid
  512 atoms
Finding 1-2 1-3 1-4 neighbors ...
  0 = max # of 1-2 neighbors
  0 = max # of 1-3 neighbors
  0 = max # of 1-4 neighbors
  1 = max # of special neighbors
WARNING: Resetting reneighboring criteria during minimization (min.cpp:173)
Setting up minimization ...
Memory usage per processor = 4.05499 Mbytes
Step Temp E_pair E_mol TotEng Press 
       0       420.15    1409.7233            0    2049.6933    441.77095 
     701       420.15   -217.27527            0    422.69467    29.026049 
Loop time of 0.0546632 on 8 procs for 701 steps with 512 atoms

Minimization stats:
  Stopping criterion = energy tolerance
  Energy initial, next-to-last, final = 
         1409.72334813     -217.256630745     -217.275265106
  Force two-norm initial, final = 5034.49 0.337455
  Force max component initial, final = 2457.89 0.147661
  Final line search alpha, max atom move = 0.254892 0.0376377
  Iterations, force evaluations = 701 710

Pair  time (%) = 0.00894663 (16.3668)
Bond  time (%) = 6.1065e-05 (0.111711)
Neigh time (%) = 0.00314921 (5.76112)
Comm  time (%) = 0.021381 (39.114)
Outpt time (%) = 0 (0)
Other time (%) = 0.0211253 (38.6463)

Nlocal:    64 ave 74 max 52 min
Histogram: 1 0 0 1 1 2 0 2 0 1
Nghost:    235.125 ave 266 max 224 min
Histogram: 4 0 2 0 0 1 0 0 0 1
Neighs:    316.25 ave 371 max 226 min
Histogram: 1 0 0 1 1 1 0 1 0 3

Total # of neighbors = 2530
Ave neighs/atom = 4.94141
Ave special neighs/atom = 0
Neighbor list builds = 60
Dangerous builds = 0
Setting up run ...
Memory usage per processor = 3.36354 Mbytes
Step Temp E_pair E_mol TotEng Press Volume 
     701       420.15   -217.27527            0    422.69467    29.026049      1000000 
 5000701    430.57362   -463.55681            0    192.29031    860.53097    50752.742 
Loop time of 1574.82 on 8 procs for 5000000 steps with 512 atoms

Pair  time (%) = 902.324 (57.2969)
Bond  time (%) = 0.458704 (0.0291273)
Neigh time (%) = 37.0933 (2.35539)
Comm  time (%) = 467.272 (29.6714)
Outpt time (%) = 4.04418e-05 (2.56802e-06)
Other time (%) = 167.674 (10.6472)

Nlocal:    64 ave 71 max 58 min
Histogram: 1 1 0 2 1 1 0 0 1 1
Nghost:    1387 ave 1417 max 1363 min
Histogram: 1 1 2 0 1 1 0 0 1 1
Neighs:    6513.38 ave 7372 max 5922 min
Histogram: 2 0 1 2 1 0 0 1 0 1

Total # of neighbors = 52107
Ave neighs/atom = 101.771
Ave special neighs/atom = 0
Neighbor list builds = 94469
Dangerous builds = 14
Setting up run ...
Memory usage per processor = 3.96722 Mbytes
Step Press Volume Temp PotEng KinEng TotEng Enthalpy E_vdwl E_coul E_tail E_long E_bond E_angle E_dihed E_impro E_mol 
10000000    860.53097    50752.742    430.57362   -463.55681    655.84712    192.29031    829.23527   -463.55681            0   -10.318448            0            0            0            0            0            0 
10001000    839.26483     52914.16    416.47412   -439.13972    634.37086    195.23113    842.89075   -439.13972            0   -9.8969642            0            0            0            0            0            0 
10002000    881.34029    48901.932    391.97548   -479.82767    597.05468      117.227    745.78525   -479.82767            0   -10.708975            0            0            0            0            0            0 
10003000    860.14023    54011.724    441.63235    -429.3451    672.69172    243.34662    920.88389    -429.3451            0   -9.6958495            0            0            0            0            0            0 
10004000    976.54839    50621.647    426.28237   -450.19491    649.31072    199.11581    920.06711   -450.19491            0    -10.34517            0            0            0            0            0            0 
10005000    936.38476    51876.258    405.33382   -442.28669    617.40202    175.11533    883.54847   -442.28669            0   -10.094975            0            0            0            0            0            0 
10006000    862.94735    50107.522    436.43253   -476.58081    664.77139    188.19058    818.80386   -476.58081            0   -10.451316            0            0            0            0            0            0 
10007000    885.85957    51592.277    413.35014   -446.60193    629.61243     183.0105    849.54935   -446.60193            0   -10.150541            0            0            0            0            0            0 
10008000    746.53845     51260.84     391.1474    -467.5246    595.79335    128.26875    686.37102    -467.5246            0   -10.216172            0            0            0            0            0            0 
10009000    807.05662    53457.477    442.08373   -432.72635    673.37926    240.65291    869.85239   -432.72635            0    -9.796376            0            0            0            0            0            0 
10010000    818.24381    51475.656    426.36068   -463.32455       649.43    186.10544    800.37714   -463.32455            0   -10.173538            0            0            0            0            0            0 
10011000    925.63781    51344.388    422.14176   -447.64814    643.00376    195.35562    888.47806   -447.64814            0   -10.199548            0            0            0            0            0            0 
10012000    960.36408     50973.82    408.72625   -441.05133    622.56934    181.51801    895.45351   -441.05133            0   -10.273696            0            0            0            0            0            0 
10013000    777.15106    52148.593    400.84534    -453.9333    610.56519    156.63188    747.68148    -453.9333            0   -10.042256            0            0            0            0            0            0 
10014000    785.10543    51498.853     401.5802   -462.51771    611.68453    149.16682     738.8265   -462.51771            0   -10.168955            0            0            0            0            0            0 
10015000    1010.4376    51347.464    413.59232   -436.32407    629.98131    193.65724    950.32353   -436.32407            0   -10.198937            0            0            0            0            0            0 
10016000    855.61007    50985.417    427.60143   -466.17172    651.31991    185.14819    821.35418   -466.17172            0   -10.271359            0            0            0            0            0            0 
10017000    802.03294    51892.617    407.06791   -451.53527    620.04337     168.5081    775.48711   -451.53527            0   -10.091793            0            0            0            0            0            0 
10018000    915.02911    52496.714    415.48893   -437.41535    632.87021    195.45487    896.01096   -437.41535            0   -9.9756634            0            0            0            0            0            0 
10019000    929.28624    51482.381    429.01995   -444.49868    653.48059    208.98191    906.70648   -444.49868            0   -10.172209            0            0            0            0            0            0 
10020000    810.37248    51342.615    426.74817   -462.84729    650.02023    187.17294    793.96313   -462.84729            0     -10.1999            0            0            0            0            0            0 
10021000    851.46566    50485.874    412.74171    -457.4601    628.68567    171.22557    798.14669    -457.4601            0   -10.372992            0            0            0            0            0            0 
10022000    769.74967    53153.282    404.07939   -442.91926    615.49127    172.57201    769.27126   -442.91926            0   -9.8524404            0            0            0            0            0            0 
10023000    746.33973    53430.714    418.33849   -440.36184    637.21065    196.84881    778.42074   -440.36184            0   -9.8012829            0            0            0            0            0            0 
10024000    902.02386    51240.464    426.98816   -456.26947    650.38577     194.1163    868.18936   -456.26947            0   -10.220234            0            0            0            0            0            0 
10025000    763.94911    53267.418    409.55811   -442.79166    623.83643    181.04478    774.51915   -442.79166            0   -9.8313296            0            0            0            0            0            0 
10026000     956.0262    50964.666    435.74852   -451.54375     663.7295    212.18576    922.76884   -451.54375            0   -10.275542            0            0            0            0            0            0 
10027000    821.54293    53076.888    408.47946   -433.39434    622.19343    188.79909    824.73245   -433.39434            0   -9.8666211            0            0            0            0            0            0 
10028000    830.89954    51641.253     396.5438    -451.6322    604.01312    152.38092     778.1602    -451.6322            0   -10.140915            0            0            0            0            0            0 
10029000    967.69258    51017.304    422.19876   -462.21902    643.09059    180.87157    900.86878   -462.21902            0    -10.26494            0            0            0            0            0            0 
10030000    1057.1827    49850.959    458.00161    -456.5443    697.62528    241.08097    1009.6793    -456.5443            0   -10.505105            0            0            0            0            0            0 
10031000    982.85314    52101.466    424.19259   -439.41368    646.12758    206.71391    953.53137   -439.41368            0    -10.05134            0            0            0            0            0            0 
10032000    997.80562    52294.579    422.98127   -431.72527    644.28251    212.55724    973.54647   -431.72527            0   -10.014222            0            0            0            0            0            0 
10033000    836.82439    51968.577    403.63478   -449.95052    614.81405    164.86353    799.09975   -449.95052            0   -10.077042            0            0            0            0            0            0 
10034000    869.70134    52356.325    382.67971   -440.93134    582.89542    141.96408    806.03609   -440.93134            0   -10.002412            0            0            0            0            0            0 
10035000    934.47914    51310.703     433.5878   -450.47012    660.43831    209.96819      909.252   -450.47012            0   -10.206244            0            0            0            0            0            0 
10036000    923.32446    51264.932    441.59171   -455.48697    672.62982    217.14285     907.4631   -455.48697            0   -10.215356            0            0            0            0            0            0 
10037000    908.49223    51982.455    410.29168   -438.95499     624.9538    185.99881    874.73657   -438.95499            0   -10.074352            0            0            0            0            0            0 
10038000    983.78818    50126.765    402.61119   -461.19512    613.25492     152.0598    871.25563   -461.19512            0   -10.447304            0            0            0            0            0            0 
10039000    936.63387    52185.077     418.9983   -438.87898    638.21567    199.33669    912.17672   -438.87898            0   -10.035236            0            0            0            0            0            0 
10040000     946.0525    50895.553     416.0858   -450.20613    633.77937    183.57324    885.78963   -450.20613            0   -10.289495            0            0            0            0            0            0 
10041000    788.59436    53302.681     438.2768   -433.57503    667.58057    234.00553    847.03113   -433.57503            0   -9.8248256            0            0            0            0            0            0 
10042000     877.5326    50335.399    440.04869   -469.28528     670.2795    200.99422    845.18227   -469.28528            0   -10.404001            0            0            0            0            0            0 
10043000    979.00049    52321.765    429.15889   -428.09891    653.69222    225.59331    972.62872   -428.09891            0   -10.009019            0            0            0            0            0            0 
10044000    1006.6429    50372.635    433.31983   -454.77266    660.03013    205.25747     944.7708   -454.77266            0    -10.39631            0            0            0            0            0            0 
10045000    821.55383    52370.275    427.95088   -449.81431    651.85219    202.03788    829.51337   -449.81431            0   -9.9997479            0            0            0            0            0            0 
10046000    907.62689    51197.085     414.1459   -442.81613    630.82453     188.0084    865.69434   -442.81613            0   -10.228894            0            0            0            0            0            0 
10047000    868.98614    51939.497    407.79412   -439.31673    621.14954    181.83281    840.07616   -439.31673            0   -10.082684            0            0            0            0            0            0 
10048000    909.52485    50577.031    429.98901   -456.57519    654.95665    198.38146    869.25984   -456.57519            0   -10.354296            0            0            0            0            0            0 
10049000     677.4985    54253.395    409.81376   -436.94643    624.22584    187.27941    723.33662   -436.94643            0   -9.6526595            0            0            0            0            0            0 
10050000    759.37267     50875.03    408.30186   -475.20385    621.92292    146.71907    710.14332   -475.20385            0   -10.293646            0            0            0            0            0            0 
10051000      986.399    52577.936    449.65634   -430.14164    684.91381    254.77217    1011.1383   -430.14164            0    -9.960253            0            0            0            0            0            0 
10052000    864.29064    50903.034     439.6177   -463.16418    669.62302    206.45883    848.08102   -463.16418            0   -10.287983            0            0            0            0            0            0 
10053000    768.62208    51084.413    422.20334   -474.64436    643.09756     168.4532    741.08723   -474.64436            0   -10.251455            0            0            0            0            0            0 
10054000    876.84648    49682.959    377.67774   -467.56128    575.27644    107.71516    743.05619   -467.56128            0   -10.540627            0            0            0            0            0            0 
10055000    937.83885    52174.404    419.58098   -443.55642    639.10321    195.54679     909.1579   -443.55642            0   -10.037289            0            0            0            0            0            0 
10056000    867.98267    53190.038    433.88288   -438.69215    660.88777    222.19563    895.50901   -438.69215            0   -9.8456321            0            0            0            0            0            0 
10057000    1139.9884    50629.586    431.36147   -437.26595    657.04717    219.78122    1061.5265   -437.26595            0   -10.343548            0            0            0            0            0            0 
10058000    808.08804    52212.409     436.3673   -458.09129    664.67202    206.58073    821.91102   -458.09129            0   -10.029983            0            0            0            0            0            0 
10059000    1038.4527    50134.421    429.97198   -455.19797    654.93071    199.73274    959.00688   -455.19797            0   -10.445709            0            0            0            0            0            0 
10060000    930.36177    51386.451    417.96416   -451.69612    636.64048    184.94435    882.17484   -451.69612            0   -10.191199            0            0            0            0            0            0 
10061000    938.47093    51947.154    411.61941   -443.89484    626.97618    183.08135    894.06313   -443.89484            0   -10.081198            0            0            0            0            0            0 
10062000    935.38046    49790.199    411.66211      -459.33    627.04122    167.71122    846.92743      -459.33            0   -10.517924            0            0            0            0            0            0 
10063000    917.07625    51946.863     419.7805   -441.66721    639.40711     197.7399    892.50927   -441.66721            0   -10.081254            0            0            0            0            0            0 
10064000    881.75066    52921.705    429.35883   -433.20494    653.99677    220.79182    901.33473   -433.20494            0   -9.8955531            0            0            0            0            0            0 
10065000    1002.2941    51906.245    460.59877   -434.19678    701.58125    267.38446    1026.1205   -434.19678            0   -10.089143            0            0            0            0            0            0 
10066000      740.677    53445.406    431.74756   -439.80363    657.63526    217.83163    795.14967   -439.80363            0   -9.7985885            0            0            0            0            0            0 
10067000    947.79442    49444.155    403.60883   -467.10153    614.77453      147.673    831.12024   -467.10153            0   -10.591536            0            0            0            0            0            0 
10068000    809.04787    51553.251    401.43508   -452.02612    611.46348    159.43735    767.72103   -452.02612            0   -10.158225            0            0            0            0            0            0 
10069000    853.13782    51930.838    429.00763   -450.46956    653.46182    202.99226    849.12302   -450.46956            0   -10.084365            0            0            0            0            0            0 
10070000     990.6324    50931.647    425.63778    -446.1073    648.32888    202.22158    938.04929    -446.1073            0   -10.282203            0            0            0            0            0            0 
10071000    944.43019     51945.61    418.82066   -446.37438     637.9451    191.57072    907.04594   -446.37438            0   -10.081498            0            0            0            0            0            0 
10072000    850.66696    49951.831    424.28077   -475.31625    646.26189    170.94564     790.6533   -475.31625            0   -10.483891            0            0            0            0            0            0 
10073000    844.05828     55358.29    413.09541   -418.00804    629.22442    211.21638    892.66166   -418.00804            0   -9.4600022            0            0            0            0            0            0 
10074000    1114.5043    49981.198    428.29692   -454.22885    652.37928    198.15043    1010.5399   -454.22885            0   -10.477731            0            0            0            0            0            0 
10075000    1042.7868    51474.515    432.78177    -432.2182    659.21057    226.99236    1009.8156    -432.2182            0   -10.173764            0            0            0            0            0            0 
10076000    951.59402    51523.699    425.52435   -455.58644    648.15611    192.56966    907.61672   -455.58644            0   -10.164052            0            0            0            0            0            0 
10077000     1115.773    51172.134    453.17871   -434.20388    690.27906    256.07518    1088.7689   -434.20388            0   -10.233881            0            0            0            0            0            0 
10078000    1026.7131    51481.974    433.60741   -428.12141    660.46817    232.34677    1003.2151   -428.12141            0    -10.17229            0            0            0            0            0            0 
10079000    992.04708    51886.261    414.34298   -433.96876    631.12471    197.15595     947.8458   -433.96876            0   -10.093029            0            0            0            0            0            0 
10080000     898.3225    51266.106    396.53284   -442.64293    603.99641    161.35348    832.99649   -442.64293            0   -10.215122            0            0            0            0            0            0 
10081000    1017.7186    49270.081    412.30674     -471.436    628.02312    156.58712     887.8725     -471.436            0   -10.628956            0            0            0            0            0            0 
10082000     825.5916    52229.881    429.05637   -450.35045    653.53605     203.1856     832.0546   -450.35045            0   -10.026627            0            0            0            0            0            0 
10083000    761.50421    51737.149     404.9643   -455.52287    616.83916     161.3163    735.89655   -455.52287            0   -10.122118            0            0            0            0            0            0 
10084000    935.25476    49827.297    424.90758   -472.99753    647.21665    174.21912    853.85006   -472.99753            0   -10.510093            0            0            0            0            0            0 
10085000    746.08277    52679.684    437.50922   -453.92652     666.4114    212.48488    785.68472   -453.92652            0   -9.9410153            0            0            0            0            0            0 
10086000    831.69325    50036.689    417.17418   -473.13383    635.43718    162.30336    769.21802   -473.13383            0   -10.466111            0            0            0            0            0            0 
10087000    846.82712    51924.855    424.65603   -458.91395    646.83349    187.91954    829.19696   -458.91395            0   -10.085527            0            0            0            0            0            0 
10088000    839.42116    52662.027    432.15165   -441.47771    658.25077    216.77306    861.46669   -441.47771            0   -9.9443483            0            0            0            0            0            0 
10089000     847.5492    49960.735    435.62093   -481.06865    663.53516    182.46651    800.01295   -481.06865            0   -10.482022            0            0            0            0            0            0 
10090000    782.89994    53616.647    433.11352   -433.21829    659.71588    226.49759    838.68135   -433.21829            0   -9.7672937            0            0            0            0            0            0 
10091000    884.88093    50366.211    389.34048   -456.65654    593.04105    136.38452    786.36453   -456.65654            0   -10.397636            0            0            0            0            0            0 
10092000    747.01697    51832.463     407.1014   -461.02277    620.09438    159.07161    723.75915   -461.02277            0   -10.103505            0            0            0            0            0            0 
10093000    968.61471    51398.365    434.10611   -447.69748     661.2278    213.53031    939.59658   -447.69748            0   -10.188837            0            0            0            0            0            0 
10094000    883.28724     52707.53    417.74282   -443.41676    636.30333    192.88657    871.85645   -443.41676            0   -9.9357633            0            0            0            0            0            0 
10095000    873.62901    51988.549    401.75365   -444.68535    611.94872    167.26337    829.64859   -444.68535            0   -10.073171            0            0            0            0            0            0 
10096000    933.60052    50710.994    413.04314   -452.44255     629.1448    176.70226    867.16318   -452.44255            0   -10.326943            0            0            0            0            0            0 
10097000    847.82077     51297.53    422.93977   -456.52715    644.21929    187.69213    821.96537   -456.52715            0   -10.208865            0            0            0            0            0            0 
10098000    1006.8539    51004.306    422.57455   -436.49465      643.663    207.16835    956.11205   -436.49465            0   -10.267555            0            0            0            0            0            0 
10099000    861.26038    51798.697    421.47745   -449.24197     641.9919    192.74993     843.3726   -449.24197            0   -10.110091            0            0            0            0            0            0 
10100000     878.7301    52705.317    399.53465   -434.56948    608.56875    173.99927    849.43779   -434.56948            0   -9.9361805            0            0            0            0            0            0 
10101000    896.64677    52032.899    426.45448   -440.43425    649.57288    209.13863    889.55586   -440.43425            0   -10.064585            0            0            0            0            0            0 
10102000     766.1086    51286.222    443.63002   -463.40974    675.73456    212.32481    785.34105   -463.40974            0   -10.211116            0            0            0            0            0            0 
10103000    854.09443    51415.101    410.45611   -453.37305    625.20426    171.83121     812.2624   -453.37305            0    -10.18552            0            0            0            0            0            0 
10104000    751.44394    50384.008    403.69417   -472.59151    614.90451      142.313    694.47332   -472.59151            0   -10.393964            0            0            0            0            0            0 
10105000     863.4931    51692.288    428.18853   -453.38984    652.21417    198.82433    849.79364   -453.38984            0   -10.130903            0            0            0            0            0            0 
10106000    968.99433    52438.506    440.42385   -424.41551    670.85094    246.43543     987.4853   -424.41551            0   -9.9867366            0            0            0            0            0            0 
10107000    816.05595    51228.686    413.37332   -465.43985    629.64774    164.20788    773.89785   -465.43985            0   -10.222584            0            0            0            0            0            0 
10108000     840.0679    51929.068    421.58583   -447.95235    642.15698    194.20464    830.41511   -447.95235            0   -10.084709            0            0            0            0            0            0 
10109000    966.83327    49150.449     437.1771   -470.71711    665.90551     195.1884    888.22307   -470.71711            0   -10.654827            0            0            0            0            0            0 
10110000     911.1991    51778.653    420.65511   -439.69261    640.73932    201.04671    889.12827   -439.69261            0   -10.114005            0            0            0            0            0            0 
10111000    831.16311    52352.504    420.08427   -448.43723    639.86981    191.43258     826.0319   -448.43723            0   -10.003142            0            0            0            0            0            0 
10112000    879.56706    50530.251    437.81532   -463.43426    666.87764    203.44338    851.62439   -463.43426            0   -10.363882            0            0            0            0            0            0 
10113000    846.14845    50636.425    438.03653   -463.10708    667.21458    204.10751    828.97149   -463.10708            0   -10.342151            0            0            0            0            0            0 
10114000    986.83075    50432.218    422.97308   -450.55452    644.27003    193.71551    919.53166   -450.55452            0   -10.384028            0            0            0            0            0            0 
10115000    858.03332    51697.511    417.42305    -444.5869    635.81626    191.22937    838.14802    -444.5869            0   -10.129879            0            0            0            0            0            0 
10116000    1011.4513    50396.857    406.85403   -449.36324     619.7176    170.35435    913.75739   -449.36324            0   -10.391314            0            0            0            0            0            0 
10117000    671.17081    53768.654    402.07258   -451.81779    612.43451    160.61672    686.92247   -451.81779            0   -9.7396811            0            0            0            0            0            0 
10118000    941.37194    49999.261    430.76845   -458.69062     656.1439    197.45328    883.89034   -458.69062            0   -10.473946            0            0            0            0            0            0 
10119000    838.39381    51536.244    402.51879   -453.37985    613.11419    159.73433    789.87385   -453.37985            0   -10.161578            0            0            0            0            0            0 
10120000    805.15062    51806.268    385.05883   -451.71076    586.51928    134.80852    743.13305   -451.71076            0   -10.108614            0            0            0            0            0            0 
10121000    830.57553    50922.056    424.37179    -457.5092    646.40053    188.89132    805.71488    -457.5092            0    -10.28414            0            0            0            0            0            0 
10122000     839.1865    54267.159    440.63873   -422.93178    671.17824    248.24645    912.40453   -422.93178            0   -9.6502113            0            0            0            0            0            0 
10123000    893.39692    49980.365    404.02702   -471.61139    615.41151    143.80012    795.00817   -471.61139            0   -10.477906            0            0            0            0            0            0 
10124000    980.34035    51832.666    430.24946   -436.71768    655.35337    218.63569    959.70072   -436.71768            0   -10.103465            0            0            0            0            0            0 
10125000    867.14374    50867.985    456.86464   -467.75843    695.89344    228.13501      871.432   -467.75843            0   -10.295072            0            0            0            0            0            0 
10126000    966.08326    51492.566    415.20617     -437.656    632.43952    194.78352    920.27944     -437.656            0   -10.170197            0            0            0            0            0            0 
10127000    947.68627    51470.754    410.89943    -436.7098    625.87952    189.16972    900.54867    -436.7098            0   -10.174507            0            0            0            0            0            0 
10128000    966.84297    50926.411    431.29496   -458.14915    656.94587    198.79671    916.88015   -458.14915            0    -10.28326            0            0            0            0            0            0 
10129000    765.03854    52071.085     416.6497   -456.46105    634.63829    178.17724    759.15008   -456.46105            0   -10.057204            0            0            0            0            0            0 
10130000    960.79514    52561.743     433.0599   -431.82637    659.63422    227.80785    964.31411   -431.82637            0   -9.9633216            0            0            0            0            0            0 
10131000    992.55681    50852.177    427.43054   -440.42822     651.0596    210.63139    946.73815   -440.42822            0   -10.298272            0            0            0            0            0            0 
10132000    898.40426     51193.96    410.71668   -449.82622    625.60115    175.77493    846.53379   -449.82622            0   -10.229518            0            0            0            0            0            0 
10133000    787.79207    51668.296    414.01764   -460.41764    630.62916    170.21152    763.83578   -460.41764            0   -10.135607            0            0            0            0            0            0 
10134000    829.00312     52055.06    393.43427    -444.8303    599.27669    154.44639     783.8004    -444.8303            0     -10.0603            0            0            0            0            0            0 
10135000    884.22313    50181.346    434.15902   -470.82923    661.30839    190.47916    837.59207   -470.82923            0   -10.435941            0            0            0            0            0            0 
10136000    861.09408    52392.049    424.88054   -436.70592    647.17546    210.46954      868.418   -436.70592            0    -9.995592            0            0            0            0            0            0 
10137000    954.66432    51613.412    427.13339   -444.77116    650.60699    205.83582    924.43903   -444.77116            0   -10.146385            0            0            0            0            0            0 
10138000    1038.5062     49028.87       422.35   -473.38669    643.32095    169.93426    912.50335   -473.38669            0   -10.681249            0            0            0            0            0            0 
10139000    797.21505    53020.849    402.39658   -449.52394    612.92803    163.40409    779.85437   -449.52394            0   -9.8770494            0            0            0            0            0            0 
10140000     914.1027    50091.434    409.71143   -457.50783    624.06996    166.56213    834.34357   -457.50783            0   -10.454673            0            0            0            0            0            0 
10141000    875.86489    52164.269     423.1609   -445.20909    644.55612    199.34703    865.67206   -445.20909            0   -10.039239            0            0            0            0            0            0 
10142000    894.43493    51772.528    430.50641   -452.73102    655.74476    203.01374    878.35613   -452.73102            0   -10.115201            0            0            0            0            0            0 
10143000    848.72352    53578.283    427.33022   -431.67217     650.9068    219.23464    882.41387   -431.67217            0   -9.7742876            0            0            0            0            0            0 
10144000    850.28471    51795.469    433.09055   -453.92613    659.68089    205.75477    848.04605   -453.92613            0   -10.110721            0            0            0            0            0            0 
10145000    1069.2091    50467.056     439.9352   -443.37064    670.10664    226.73599    1013.6849   -443.37064            0   -10.376859            0            0            0            0            0            0 
10146000    848.34268     52254.43    421.02304   -451.25045    641.29975    190.04929    836.55196   -451.25045            0   -10.021917            0            0            0            0            0            0 
10147000    916.60057    49697.831    406.75633   -474.00669    619.56878    145.56209    809.90675   -474.00669            0   -10.537473            0            0            0            0            0            0 
10148000    881.66496    51458.208    405.43815   -453.23654    617.56094     164.3244    825.98325   -453.23654            0   -10.176988            0            0            0            0            0            0 
10149000     901.8502    51734.365    441.55114   -449.52254    672.56802    223.04547    903.48482   -449.52254            0   -10.122663            0            0            0            0            0            0 
10150000    930.40123    53078.236    418.59545   -427.13669    637.60205    210.46536    930.68116   -427.13669            0   -9.8663706            0            0            0            0            0            0 
10151000    944.24126     50425.59    402.85782   -457.45431    613.63058    156.17627    850.57649   -457.45431            0   -10.385392            0            0            0            0            0            0 
10152000    841.65094    49523.215    427.05516   -479.86471    650.48783    170.62312    778.50155   -479.86471            0   -10.574627            0            0            0            0            0            0 
10153000    840.11561    52023.945    430.68882   -448.01284     656.0226    208.00977    845.41882   -448.01284            0   -10.066317            0            0            0            0            0            0 
10154000    715.41509    53384.879    423.25708   -449.45592    644.70262     195.2467    752.24292   -449.45592            0   -9.8096981            0            0            0            0            0            0 
10155000    813.18461    51215.529    410.86329   -461.39884    625.82448    164.42564    771.81433   -461.39884            0    -10.22521            0            0            0            0            0            0 
10156000    760.13397    50798.056    416.52676   -472.78236    634.45103    161.66868    724.80446   -472.78236            0   -10.309244            0            0            0            0            0            0 
10157000    753.94838    52714.069    425.48727   -452.21069    648.09962    195.88894    775.50984   -452.21069            0   -9.9345309            0            0            0            0            0            0 
10158000    680.55693    52557.298    421.76566   -460.19317    642.43089    182.23773    703.88073   -460.19317            0   -9.9641641            0            0            0            0            0            0 
10159000    794.23662    51402.116    421.45353   -463.25482    641.95546    178.70064    774.09785   -463.25482            0   -10.188093            0            0            0            0            0            0 
10160000    1023.6818    51424.495     417.9622   -433.52621     636.6375    203.11129    970.84551   -433.52621            0   -10.183659            0            0            0            0            0            0 
10161000    1015.9807    51545.889    435.55075   -435.80254    663.42826    227.62571    991.38305   -435.80254            0   -10.159676            0            0            0            0            0            0 
10162000    851.08351    51971.168    414.32546    -445.1984    631.09803    185.89963    830.97511    -445.1984            0    -10.07654            0            0            0            0            0            0 
10163000     863.1043    50390.901    430.55919   -466.08552    655.82515    189.73963    824.03464   -466.08552            0   -10.392542            0            0            0            0            0            0 
10164000    782.09734    52592.954    403.77397    -452.4025    615.02607    162.62357     762.5034    -452.4025            0   -9.9574088            0            0            0            0            0            0 
10165000    798.06342    52169.842    418.85983   -458.56765    638.00476    179.43711    786.63858   -458.56765            0   -10.038166            0            0            0            0            0            0 
10166000    914.72574    51070.909    413.61609   -451.85905    630.01752    178.15847    859.46159   -451.85905            0   -10.254165            0            0            0            0            0            0 
10167000    810.07141    50511.215    414.08041   -471.62065    630.72477    159.10413    755.84669   -471.62065            0   -10.367787            0            0            0            0            0            0 
10168000     821.2637    51003.829     440.1758   -470.45524    670.47311    200.01787    810.90544   -470.45524            0   -10.267652            0            0            0            0            0            0 
10169000    965.45246    51390.923    447.05306   -442.12777     680.9485    238.82074     962.4118   -442.12777            0   -10.190312            0            0            0            0            0            0 
10170000    804.42217    51444.792    402.92344   -462.40106    613.73054    151.32948    754.86291   -462.40106            0   -10.179642            0            0            0            0            0            0 
10171000    800.29612    53056.082    429.17611   -440.78298    653.71845    212.93547    832.17942   -440.78298            0   -9.8704904            0            0            0            0            0            0 
10172000    1006.0185    50303.258    412.07319   -446.87856    627.66739    180.78882    918.82555   -446.87856            0   -10.410649            0            0            0            0            0            0 
10173000    705.38144    51487.702    435.35408   -474.92587    663.12869    188.20283    717.87045   -474.92587            0   -10.171158            0            0            0            0            0            0 
10174000    962.07086    50155.127    426.63228   -460.64453    649.84369    189.19917    892.91655   -460.64453            0   -10.441396            0            0            0            0            0            0 
10175000    787.54831    51517.375    419.77119   -463.76641    639.39293    175.62652    767.33367   -463.76641            0     -10.1653            0            0            0            0            0            0 
10176000    998.04508    51249.991    442.23184    -444.7739    673.60486    228.83096    974.79835    -444.7739            0   -10.218334            0            0            0            0            0            0 
10177000    1031.3856    53096.658    425.35807   -413.27506    647.90283    234.62777    1033.2918   -413.27506            0   -9.8629475            0            0            0            0            0            0 
10178000    895.21585     51091.94    441.46409   -460.14749    672.43543    212.28794    879.33434   -460.14749            0   -10.249944            0            0            0            0            0            0 
10179000    1023.7345    50931.512    418.94052   -432.87354    638.12765    205.25411    965.66756   -432.87354            0   -10.282231            0            0            0            0            0            0 
10180000    913.71998    50572.832    402.98414   -454.84307      613.823    158.97993    832.89673   -454.84307            0   -10.355156            0            0            0            0            0            0 
10181000    840.91811    50619.126    422.08017   -471.04726    642.90995    171.86269    792.65201   -471.04726            0   -10.345685            0            0            0            0            0            0 
10182000      882.982    51733.541    437.43603   -449.46832    666.29991    216.83159     883.0244   -449.46832            0   -10.122824            0            0            0            0            0            0 
10183000    915.75396    51041.486    401.91817   -447.33995    612.19931    164.85936    846.53537   -447.33995            0   -10.260076            0            0            0            0            0            0 
10184000     921.3667    52064.389    435.36581    -441.4804    663.14656    221.66617    921.26516    -441.4804            0   -10.058498            0            0            0            0            0            0 
10185000     961.8927    51618.914    423.25209   -440.04701    644.69502      204.648     928.7694   -440.04701            0   -10.145303            0            0            0            0            0            0 
10186000    916.37342    52733.109    444.00412   -445.85536    676.30438    230.44901     935.1936   -445.85536            0   -9.9309439            0            0            0            0            0            0 
10187000    994.77059    50502.761    413.99586   -447.76955    630.59598    182.82643    915.50578   -447.76955            0   -10.369523            0            0            0            0            0            0 
10188000    951.41548    52269.744    408.75143   -431.32732    622.60771    191.28039    916.54498   -431.32732            0    -10.01898            0            0            0            0            0            0 
10189000    924.77262    53218.157    440.56379   -427.66393    671.06409    243.40016    961.14599   -427.66393            0     -9.84043            0            0            0            0            0            0 
10190000    993.42724    49512.688     403.2151   -456.21646    614.17479    157.95833    875.30396   -456.21646            0   -10.576876            0            0            0            0            0            0 
10191000    852.72356    51816.741    406.22438   -443.46524    618.75852    175.29328    819.69137   -443.46524            0    -10.10657            0            0            0            0            0            0 
10192000    777.66391    49705.545     423.8878   -485.69941    645.66333    159.96392    723.69591   -485.69941            0   -10.535837            0            0            0            0            0            0 
10193000    849.11307    52282.618    410.79004   -439.10737     625.7129    186.60553    834.04436   -439.10737            0   -10.016513            0            0            0            0            0            0 
10194000    950.79851    49991.248    441.78667   -476.22377    672.92678    196.70302    889.90271   -476.22377            0   -10.475624            0            0            0            0            0            0 
10195000    792.79486    50900.295    430.59643   -464.02594    655.88187    191.85592    780.37022   -464.02594            0   -10.288537            0            0            0            0            0            0 
10196000    844.01762    52447.996    398.47937   -446.02182    606.96136    160.93953     806.5288   -446.02182            0   -9.9849296            0            0            0            0            0            0 
10197000    893.72125    51989.182    427.40644   -441.56804     651.0229    209.45486    887.08226   -441.56804            0   -10.073048            0            0            0            0            0            0 
10198000    740.49893    51145.376    400.83913   -466.63234    610.55574    143.92339    696.26366   -466.63234            0   -10.239235            0            0            0            0            0            0 
10199000    935.80817    49789.188    406.52596   -469.59918    619.21788     149.6187     829.1317   -469.59918            0   -10.518138            0            0            0            0            0            0 
10200000     877.1618    52450.466      409.662   -440.55542    623.99467    183.43925     854.4121   -440.55542            0   -9.9844594            0            0            0            0            0            0 
10201000    900.45238    51590.739    430.79099   -455.89238    656.17823    200.28585    877.78443   -455.89238            0   -10.150844            0            0            0            0            0            0 
10202000    876.58315    52035.244    432.12377   -444.21338    658.20831    213.99493    879.21693   -444.21338            0   -10.064132            0            0            0            0            0            0 
10203000     755.3895    50819.128     394.8927   -468.16462    601.49817    133.33355    693.18658   -468.16462            0   -10.304969            0            0            0            0            0            0 
10204000    867.38103    51009.226    427.55849   -460.32033     651.2545    190.93416    836.19386   -460.32033            0   -10.266565            0            0            0            0            0            0 
10205000    994.63937    51716.947    417.01841   -430.20877    635.19991    204.99114    955.18657   -430.20877            0   -10.126072            0            0            0            0            0            0 
10206000    795.19303    53887.496    413.88487   -436.74633    630.42692    193.68059    818.61791   -436.74633            0   -9.7182014            0            0            0            0            0            0 
10207000    972.81385     50352.33    427.23814   -456.97221    650.76655    193.79434    908.16763   -456.97221            0   -10.400503            0            0            0            0            0            0 
10208000     923.7748    52491.689    427.06484   -439.91741    650.50258    210.58517    917.76936   -439.91741            0   -9.9766184            0            0            0            0            0            0 
10209000    951.89087    51026.161    425.88821   -443.44604    648.71034     205.2643    913.62743   -443.44604            0   -10.263158            0            0            0            0            0            0 
10210000    957.04082    49795.585    423.94653   -461.67312    645.75278    184.07965    879.09948   -461.67312            0   -10.516787            0            0            0            0            0            0 
10211000    753.42342    52560.032     422.4539    -451.4044    643.47922    192.07482    769.59961    -451.4044            0   -9.9636458            0            0            0            0            0            0 
10212000    980.21972    51107.684    424.17081    -443.2234    646.09441    202.87101    933.48086    -443.2234            0   -10.246787            0            0            0            0            0            0 
10213000    1009.8005    51813.757     414.2664   -433.28782    631.00806    197.72024    960.77647   -433.28782            0   -10.107153            0            0            0            0            0            0 
10214000    883.35797    51063.224      427.134   -456.06455    650.60793    194.54337    852.38425   -456.06455            0   -10.255709            0            0            0            0            0            0 
10215000    877.30473    53151.807    428.95647   -433.66687     653.3839    219.71703    899.77259   -433.66687            0   -9.8527138            0            0            0            0            0            0 
10216000    749.33426    54403.268    463.28351   -441.61101    705.67063    264.05962     858.5933   -441.61101            0   -9.6260678            0            0            0            0            0            0 
10217000    810.16485    51077.946    399.12165   -463.22393    607.93968    144.71575     748.2233   -463.22393            0   -10.252753            0            0            0            0            0            0 
10218000     925.5066    51855.131    435.83696   -443.91145    663.86421    219.95276    919.87074   -443.91145            0   -10.099088            0            0            0            0            0            0 
10219000    818.61897    50403.183    415.39607   -477.65574    632.72878    155.07304    756.82243   -477.65574            0   -10.390009            0            0            0            0            0            0 
10220000    878.95938    49468.755    436.31797   -488.36761    664.59689    176.22927    810.35544   -488.36761            0   -10.586269            0            0            0            0            0            0 
10221000     774.0128    52004.029    407.34807   -456.16831    620.47011     164.3018    751.33278   -456.16831            0   -10.070173            0            0            0            0            0            0 
10222000    894.28634    49839.725    383.40617   -472.53778    584.00196    111.46418    761.48628   -472.53778            0   -10.507473            0            0            0            0            0            0 
10223000     903.5413    52340.148    435.07718   -442.97059    662.70693    219.73633    909.43413   -442.97059            0   -10.005504            0            0            0            0            0            0 
10224000    933.79132    51654.012     411.2134   -445.06438    626.35776    181.29338    884.73778   -445.06438            0    -10.13841            0            0            0            0            0            0 
10225000    781.91433     51899.42    409.34243   -453.78045    623.50791    169.72746    761.55827   -453.78045            0    -10.09047            0            0            0            0            0            0 
10226000    767.72099    51726.858    392.86478   -453.34576    598.40925    145.06349    724.21929   -453.34576            0   -10.124132            0            0            0            0            0            0 
10227000    706.94537    51410.254    433.42839    -478.8664    660.19549    181.32908    711.37256    -478.8664            0    -10.18648            0            0            0            0            0            0 
10228000    912.55332    50948.701    420.09322   -454.42121    639.88344    185.46223    863.52087   -454.42121            0   -10.278761            0            0            0            0            0            0 
10229000    944.38468     51541.21    415.01345    -438.9764    632.14596    193.16956    903.04056    -438.9764            0   -10.160599            0            0            0            0            0            0 
10230000    754.83112    53342.002     418.4479    -448.3645     637.3773     189.0128     776.2249    -448.3645            0   -9.8175833            0            0            0            0            0            0 
10231000    964.62182    50758.289    412.99638   -448.59153    629.07358    180.48206    894.55068   -448.59153            0   -10.317321            0            0            0            0            0            0 
10232000    976.83902    50900.596    460.66843    -449.4746    701.68736    252.21275    977.35257    -449.4746            0   -10.288476            0            0            0            0            0            0 
10233000      830.479    52620.919    425.71242   -440.67752    648.44258    207.76506    845.09303   -440.67752            0    -9.952117            0            0            0            0            0            0 
10234000    899.15044    50149.329     419.1386   -461.42948    638.42937    176.99988    834.61741   -461.42948            0   -10.442603            0            0            0            0            0            0 
10235000     911.5036    50572.045    402.72353   -454.55247    613.42603    158.87356    831.14521   -454.55247            0   -10.355317            0            0            0            0            0            0 
10236000    815.92244     53248.68    449.15863   -439.41412    684.15571    244.74159     878.3685   -439.41412            0   -9.8347892            0            0            0            0            0            0 
10237000    928.80449    50923.889    417.72475   -446.84025     636.2758    189.43555    879.23328   -446.84025            0    -10.28377            0            0            0            0            0            0 
10238000    708.55731    51222.855    436.06316   -474.59915    664.20876    189.60962    718.92517   -474.59915            0   -10.223748            0            0            0            0            0            0 
10239000    798.67401    51096.619    403.69076   -465.09255    614.89931    149.80676    744.97207   -465.09255            0   -10.249006            0            0            0            0            0            0 
10240000    812.22797    51620.017    397.66874   -450.79803    605.72661    154.92857     766.3941   -450.79803            0   -10.145087            0            0            0            0            0            0 
10241000    989.36109    50752.422    403.41089   -442.38411    614.47303    172.08891    904.38631   -442.38411            0   -10.318513            0            0            0            0            0            0 
10242000    1033.4692    48695.436    436.06842   -471.82811    664.21677    192.38867    926.33055   -471.82811            0   -10.754387            0            0            0            0            0            0 
10243000    781.38578    53095.193    406.49927   -441.83903    619.17723     177.3382    782.39562   -441.83903            0   -9.8632196            0            0            0            0            0            0 
10244000    814.16567    52326.519    414.12949   -440.98327    630.79952    189.81625    811.12937   -440.98327            0    -10.00811            0            0            0            0            0            0 
10245000    967.36783    53310.893    426.46959   -424.95672     649.5959    224.63918    976.75287   -424.95672            0   -9.8233121            0            0            0            0            0            0 
10246000    952.44428    50411.839    427.43954   -460.25091    651.07332    190.82241    891.06417   -460.25091            0   -10.388225            0            0            0            0            0            0 
10247000    914.62449    52150.144    416.00092   -434.06233    633.65008    199.58775    895.21121   -434.06233            0   -10.041958            0            0            0            0            0            0 
10248000    955.04192    52515.936    458.47018   -435.10161      698.339     263.2374    994.69547   -435.10161            0    -9.972012            0            0            0            0            0            0 
10249000    917.31345    50528.319    392.69589   -458.85607    598.15199    139.29592     815.2676   -458.85607            0   -10.364278            0            0            0            0            0            0 
10250000    794.55711    51846.541    416.02317    -456.6996    633.68397    176.98436    777.77173    -456.6996            0   -10.100762            0            0            0            0            0            0 
10251000    931.70427    49662.781     405.6654   -472.63091    617.90707    145.27616    820.09159   -472.63091            0    -10.54491            0            0            0            0            0            0 
10252000    883.34123    50949.881    405.88515   -461.17216    618.24179    157.06963    813.43788   -461.17216            0   -10.278523            0            0            0            0            0            0 
10253000    905.04746    53053.842    405.11247   -427.59869    617.06485    189.46616    889.73385   -427.59869            0   -9.8709071            0            0            0            0            0            0 
10254000     800.4447    52075.064    409.13667   -449.82597     623.1945    173.36852    781.27537   -449.82597            0   -10.056436            0            0            0            0            0            0 
10255000    1020.7521    50360.826    417.14842   -447.35486    635.39794    188.04308    937.74566   -447.35486            0   -10.398748            0            0            0            0            0            0 
10256000    984.93936    50294.997    450.15981   -461.43401    685.68069    224.24668    946.70063   -461.43401            0   -10.412359            0            0            0            0            0            0 
10257000    732.70034    54362.931    416.93117   -441.87186    635.06703    193.19517    774.10022   -441.87186            0   -9.6332102            0            0            0            0            0            0 
10258000    1016.2454     49286.12    418.87651   -465.64498    638.03016    172.38518     902.8497   -465.64498            0   -10.625497            0            0            0            0            0            0 
10259000    799.81551    51946.234    404.74262   -454.28501    616.50151     162.2165    768.14277   -454.28501            0   -10.081377            0            0            0            0            0            0 
10260000    908.51401    50735.622    426.43741   -450.42171    649.54687    199.12516    871.35922   -450.42171            0    -10.32193            0            0            0            0            0            0 
10261000    902.21001    50653.642    403.52105   -460.48606    614.64081    154.15476    820.64563   -460.48606            0   -10.338636            0            0            0            0            0            0 
10262000    825.03407    51999.196     420.9682   -451.00858     641.2162    190.20762    815.87628   -451.00858            0   -10.071109            0            0            0            0            0            0 
10263000    872.04017    51630.265    414.26106   -451.57918    630.99994    179.42076    836.04473   -451.57918            0   -10.143073            0            0            0            0            0            0 
10264000    987.71757    50983.075     436.0455   -441.51109    664.18186    222.67078     957.0742   -441.51109            0   -10.271831            0            0            0            0            0            0 
10265000    1003.9823    51562.787    443.32977   -437.52153    675.27722    237.75569    992.74068   -437.52153            0   -10.156347            0            0            0            0            0            0 
10266000    943.15352    50274.163    438.87987   -465.46149    668.49916    203.03767    894.55509   -465.46149            0   -10.416674            0            0            0            0            0            0 
10267000    842.91812    52478.872    436.63689   -448.90046    665.08266    216.18221    861.31003   -448.90046            0   -9.9790548            0            0            0            0            0            0 
10268000    733.50738    54140.179    421.71824   -438.72344    642.35867    203.63523    782.79724   -438.72344            0   -9.6728446            0            0            0            0            0            0 
10269000    842.24903    51097.558    415.55939   -462.19143    632.97754    170.78611    798.43469   -462.19143            0   -10.248817            0            0            0            0            0            0 
10270000     964.0788    52560.988    418.01503   -427.28936    636.71795     209.4286    948.44136   -427.28936            0   -9.9634646            0            0            0            0            0            0 
10271000    951.76165    52147.232    420.78832   -428.44176    640.94222    212.50047    936.32842   -428.44176            0   -10.042518            0            0            0            0            0            0 
10272000    899.84561    51939.631    406.88295    -442.4494    619.76164    177.31223    858.93291    -442.4494            0   -10.082658            0            0            0            0            0            0 
10273000    747.26447    52763.525    412.66179   -453.04757    628.56393    175.51636    750.53779   -453.04757            0   -9.9252191            0            0            0            0            0            0 
10274000    1046.1411    49369.178    409.74786     -461.822    624.12545    162.30346     915.5238     -461.822            0   -10.607621            0            0            0            0            0            0 
10275000    708.25021    53600.874    405.10986   -445.85514    617.06088    171.20575    724.85468   -445.85514            0   -9.7701681            0            0            0            0            0            0 
10276000    870.50188    51500.538    417.91791   -453.44055    636.57003    183.12948    836.94823   -453.44055            0   -10.168623            0            0            0            0            0            0 
10277000    880.24227    50991.339    435.40835   -455.00848    663.21136    208.20288    862.80066   -455.00848            0   -10.270167            0            0            0            0            0            0 
10278000    1121.2075     49801.92     413.8542   -449.21992    630.38021    181.16029    995.50442   -449.21992            0   -10.515449            0            0            0            0            0            0 
10279000    839.57127    52255.019    417.35054   -445.04826    635.70581    190.65755    830.48294   -445.04826            0   -10.021804            0            0            0            0            0            0 
10280000    954.92024    51424.682    403.80436    -438.2235    615.07234    176.84885    893.01634    -438.2235            0   -10.183622            0            0            0            0            0            0 
10281000    790.26986    50757.096    415.23648   -469.57734    632.48569    162.90835    747.89786   -469.57734            0   -10.317563            0            0            0            0            0            0 
10282000    885.75095    52489.274    437.97737   -444.14089    667.12447    222.98358     901.0279   -444.14089            0   -9.9770773            0            0            0            0            0            0 
10283000    888.24707    50860.739    425.37045    -463.2544    647.92169    184.66729    843.52607    -463.2544            0   -10.296538            0            0            0            0            0            0 
10284000    794.19532    51639.352    381.89229   -456.91277    581.69602    124.78325    722.89729   -456.91277            0   -10.141288            0            0            0            0            0            0 
10285000     901.7531    51287.584    424.17907   -456.77507    646.10698    189.33191    863.82232   -456.77507            0   -10.210844            0            0            0            0            0            0 
10286000    996.16004    50920.903    431.43844   -449.10482    657.16442     208.0596    947.83708   -449.10482            0   -10.284373            0            0            0            0            0            0 
10287000    1038.2676    52101.724    439.99574   -426.20853    670.19885    243.99032    1032.9182   -426.20853            0    -10.05129            0            0            0            0            0            0 
10288000     894.3302    50520.305    425.46817   -458.28109    648.07054    189.78945    848.72016   -458.28109            0   -10.365922            0            0            0            0            0            0 
10289000    941.63869    52056.952    404.95431   -437.15259    616.82396    179.67137    894.56088   -437.15259            0   -10.059935            0            0            0            0            0            0 
10290000    818.28899    50611.659    413.62522   -477.59819    630.03142    152.43324      756.428   -477.59819            0   -10.347212            0            0            0            0            0            0 
10291000    841.00043      52687.6    414.99147   -447.15038     632.1125    184.96212     831.1823   -447.15038            0   -9.9395217            0            0            0            0            0            0 
10292000    947.71916    51049.225    431.51935   -455.33146    657.28766     201.9562    907.53366   -455.33146            0   -10.258521            0            0            0            0            0            0 
10293000    891.17531    52480.147    431.02021   -449.52036    656.52737    207.00702    889.08507   -449.52036            0   -9.9788125            0            0            0            0            0            0 
10294000    965.13229    52102.092    441.02265   -438.80636    671.76303    232.95667    966.31781   -438.80636            0   -10.051219            0            0            0            0            0            0 
10295000    864.73689    52072.315    429.86949   -442.58942     654.7746    212.18518    868.88479   -442.58942            0   -10.056967            0            0            0            0            0            0 
10296000    1054.4913    49811.243    403.81212   -449.05117    615.08417      166.033    932.06385   -449.05117            0   -10.513481            0            0            0            0            0            0 
10297000     756.3864    52198.411    406.27823   -450.03956    618.84054    168.80099     744.6079   -450.03956            0   -10.032672            0            0            0            0            0            0 
10298000    801.00748    54602.808    442.76026   -425.74454    674.40974     248.6652    886.52824   -425.74454            0   -9.5908904            0            0            0            0            0            0 
10299000    1087.4106    50711.027    459.28013   -447.34181    699.57271     252.2309    1056.4453   -447.34181            0   -10.326936            0            0            0            0            0            0 
10300000     893.9354    52288.929    397.61795   -435.70861    605.64925    169.94064    851.63825   -435.70861            0   -10.015304            0            0            0            0            0            0 
10301000    780.16243    50922.251    401.11314   -463.29714     610.9731    147.67596    727.06265   -463.29714            0     -10.2841            0            0            0            0            0            0 
10302000    918.52693    49952.274    428.27984    -474.2438    652.35326    178.10946    847.25879    -474.2438            0   -10.483798            0            0            0            0            0            0 
10303000    930.46032    49516.715    409.87929    -468.6643    624.32565    155.66135    827.59374    -468.6643            0   -10.576015            0            0            0            0            0            0 
10304000    952.20085    53178.011    430.26503   -417.61084    655.37709    237.76625    976.24252   -417.61084            0   -9.8478589            0            0            0            0            0            0 
10305000    1036.1646    50157.067    438.36909   -453.60658    667.72113    214.11455    972.05797   -453.60658            0   -10.440992            0            0            0            0            0            0 
10306000    879.65244    51669.856    415.28443   -456.77456    632.55873    175.78417     838.6479   -456.77456            0   -10.135301            0            0            0            0            0            0 
10307000    842.95505    51761.385    407.61433   -450.16498    620.87568    170.71069    807.04625   -450.16498            0   -10.117379            0            0            0            0            0            0 
10308000    1095.7305    49895.299    415.01873   -442.52228    632.15402    189.63174    986.96391   -442.52228            0   -10.495769            0            0            0            0            0            0 
10309000    1074.3736     50372.48    441.50113   -446.71003    672.49184    225.78181    1015.0499   -446.71003            0   -10.396342            0            0            0            0            0            0 
10310000    1192.9019    48406.293    438.42519   -458.66509     667.8066    209.14151     1051.278   -458.66509            0   -10.818625            0            0            0            0            0            0 
10311000    879.05034    51839.952    412.70654   -447.31772    628.63209    181.31437    845.90501   -447.31772            0   -10.102045            0            0            0            0            0            0 
10312000    855.88037    50886.755    418.59568   -458.83534    637.60241    178.76707    813.94253   -458.83534            0   -10.291274            0            0            0            0            0            0 
10313000    915.81678    51686.484    420.05696   -448.92256    639.82822    190.90566    881.24318   -448.92256            0    -10.13204            0            0            0            0            0            0 
10314000     950.4973    49911.782    436.60231   -469.95737       665.03    195.07263    886.95116   -469.95737            0   -10.492303            0            0            0            0            0            0 
10315000    844.53697    50879.379    418.49591   -458.29842    637.45043    179.15201    805.81834   -458.29842            0   -10.292766            0            0            0            0            0            0 
10316000    838.49556    50261.272    389.17749   -472.43429     592.7928    120.35851    734.98338   -472.43429            0   -10.419345            0            0            0            0            0            0 
10317000    823.64298    51491.138    432.71146   -461.77975    659.10347    197.32372    815.83466   -461.77975            0   -10.170479            0            0            0            0            0            0 
10318000    719.64143    53078.194    431.42763   -452.22044    657.14795    204.92751    761.99548   -452.22044            0   -9.8663783            0            0            0            0            0            0 
10319000    804.33507     49592.34     408.6721   -480.57032    622.48686    141.91653    723.65462   -480.57032            0   -10.559888            0            0            0            0            0            0 
10320000    851.97181    51562.083    401.41565   -457.19389    611.43388    154.23999    794.90583   -457.19389            0   -10.156485            0            0            0            0            0            0 
10321000    726.73577    52561.017    421.23763   -451.73323    641.62661    189.89338    746.97161   -451.73323            0   -9.9634591            0            0            0            0            0            0 
10322000    928.39398    50791.181    440.00917   -466.03874     670.2193    204.18056    891.87659   -466.03874            0   -10.310639            0            0            0            0            0            0 
10323000    807.13728    53044.715    435.36265   -454.27073    663.14176    208.87103    833.27466   -454.27073            0   -9.8726055            0            0            0            0            0            0 
10324000    1062.9033    49679.374    423.03801   -455.33759    644.36894    189.03134    959.12893   -455.33759            0   -10.541388            0            0            0            0            0            0 
10325000    932.08282    50011.405    423.32438   -467.35574    644.80513    177.44939    857.27802   -467.35574            0   -10.471402            0            0            0            0            0            0 
10326000    854.95062    53863.607    424.49556   -425.21462    646.58906    221.37444    892.97702   -425.21462            0   -9.7225116            0            0            0            0            0            0 
10327000    1003.8811    51703.568    432.27814   -435.69954    658.44345    222.74391    979.71394   -435.69954            0   -10.128693            0            0            0            0            0            0 
10328000    918.72245    51835.947    401.97592   -437.95614    612.28729    174.33114    868.86154   -437.95614            0   -10.102826            0            0            0            0            0            0 
10329000    770.51621    53291.876    417.66799   -438.31623    636.18934    197.87311    796.72397   -438.31623            0   -9.8268176            0            0            0            0            0            0 
10330000      1040.88    49239.599    401.04508   -455.31556    610.86943    155.55387    903.01924   -455.31556            0   -10.635536            0            0            0            0            0            0 
10331000    986.04661    50603.315    443.15749   -451.82651    675.01481    223.18829    950.88816   -451.82651            0   -10.348918            0            0            0            0            0            0 
10332000    852.23673    53234.764    445.69163   -442.87248    678.87478     236.0023     897.6571   -442.87248            0   -9.8373602            0            0            0            0            0            0 
10333000    879.27678    48950.118    407.78444   -483.77042    621.13478    137.36437    765.06886   -483.77042            0   -10.698433            0            0            0            0            0            0 
10334000    791.49166    52335.489    430.98321   -451.63853    656.47101    204.83248    808.94595   -451.63853            0   -10.006395            0            0            0            0            0            0 
10335000    815.46393    51056.222     430.2695   -466.96043    655.38389    188.42346    795.62004   -466.96043            0   -10.257115            0            0            0            0            0            0 
10336000    924.50662    53060.774    395.52715    -424.3054    602.46456    178.15917    893.57656    -424.3054            0   -9.8696175            0            0            0            0            0            0 
10337000    771.71712     53769.45    423.40381   -442.43799    644.92611    202.48812     807.6473   -442.43799            0    -9.739537            0            0            0            0            0            0 
10338000    959.13477    50160.422    429.32446   -456.23361    653.94441     197.7108    899.35462   -456.23361            0   -10.440294            0            0            0            0            0            0 
10339000    884.44538    51477.966     392.3246   -441.56866    597.58645    156.01779    820.01811   -441.56866            0   -10.173081            0            0            0            0            0            0 
10340000    938.69502    53648.511    413.55162   -409.12637    629.91932    220.79295    955.23592   -409.12637            0   -9.7614926            0            0            0            0            0            0 
10341000    837.50709    50998.112    423.45053   -461.56826    644.99728    183.42902    806.32923   -461.56826            0   -10.268803            0            0            0            0            0            0 
10342000    912.23083    50457.965    430.15196     -463.366    655.20485    191.83885    863.12913     -463.366            0   -10.378729            0            0            0            0            0            0 
10343000    839.91098    52992.205    408.83292    -433.1916    622.73182    189.54022    838.65447    -433.1916            0   -9.8823883            0            0            0            0            0            0 
10344000    786.06411    50664.217    449.92151    -480.0602    685.31771    205.25751    786.06899    -480.0602            0   -10.336478            0            0            0            0            0            0 
10345000    921.27389    50638.481    405.25028    -458.9573    617.27477    158.31747    838.68774    -458.9573            0   -10.341731            0            0            0            0            0            0 
10346000    962.20901    51109.894    419.08455   -442.50184    638.34704     195.8452    913.06174   -442.50184            0   -10.246344            0            0            0            0            0            0 
10347000    849.92362    51176.146     421.6286   -464.21371    642.22213    178.00842    812.35027   -464.21371            0   -10.233079            0            0            0            0            0            0 
10348000    815.87692    52568.224      404.687    -438.2484    616.41679    178.16839    803.66339    -438.2484            0   -9.9620931            0            0            0            0            0            0 
10349000    760.98693    52238.042    407.10591   -454.45876    620.10126     165.6425    745.39145   -454.45876            0   -10.025061            0            0            0            0            0            0 
10350000    825.62538    51641.244    437.83311   -459.58689    666.90474    207.31784    829.12486   -459.58689            0   -10.140916            0            0            0            0            0            0 
10351000    856.95127    51359.141    421.67991   -452.88597    642.30028    189.41431    831.28828   -452.88597            0   -10.196618            0            0            0            0            0            0 
10352000    782.97974    53321.629    408.26319   -442.47706    621.86401    179.38695    788.26431   -442.47706            0   -9.8213343            0            0            0            0            0            0 
10353000    793.26492    52253.274    402.01304   -452.98346    612.34383    159.36037    763.87615   -452.98346            0   -10.022138            0            0            0            0            0            0 
[...]
14939000    999.35895    52591.984    423.83563   -425.80014    645.58386    219.78372    986.29218   -425.80014            0   -9.9575924            0            0            0            0            0            0 
14940000     842.6821      53856.2    419.64354   -433.39188     639.1985    205.80661    867.68069   -433.39188            0   -9.7238487            0            0            0            0            0            0 
14941000     906.8181    50510.421    431.78807   -462.02057    657.69698    195.67641    863.67733   -462.02057            0    -10.36795            0            0            0            0            0            0 
14942000    838.68538    53583.012    423.20807    -428.8689    644.62797    215.75907     871.1525    -428.8689            0   -9.7734249            0            0            0            0            0            0 
14943000    996.01034    49870.096    406.37527   -455.23227    618.98834    163.75608    888.15858   -455.23227            0   -10.501074            0            0            0            0            0            0 
14944000     809.4109    53597.402    446.48195   -440.30392     680.0786    239.77469    872.46135   -440.30392            0   -9.7708009            0            0            0            0            0            0 
14945000    1036.7205    48809.262     419.6506   -474.65786    639.20925     164.5514     902.5233   -474.65786            0   -10.729307            0            0            0            0            0            0 
14946000    912.05176    51629.894    416.32049    -443.8463    634.13684    190.29054    877.03729    -443.8463            0   -10.143146            0            0            0            0            0            0 
14947000    1028.9301    51263.518       424.42   -438.08966    646.47397     208.3843    977.63905   -438.08966            0   -10.215638            0            0            0            0            0            0 
14948000     826.1491    51222.488    452.67552    -467.1958    689.51261    222.31681    839.47286    -467.1958            0   -10.223821            0            0            0            0            0            0 
14949000    865.52338    51360.304    421.03468   -456.57589    641.31747    184.74158    833.05093   -456.57589            0   -10.196387            0            0            0            0            0            0 
14950000    788.41203    51250.219    426.61331   -455.79973     649.8148    194.01507    783.29935   -455.79973            0   -10.218289            0            0            0            0            0            0 
14951000    742.23979    51941.764    397.01596   -459.94453     604.7323    144.78776    707.04728   -459.94453            0   -10.082244            0            0            0            0            0            0 
14952000    926.54802     49575.05     404.9935    -466.6965    616.88364    150.18714    820.08252    -466.6965            0   -10.563571            0            0            0            0            0            0 
14953000    828.48618    52452.456    446.26775   -443.57529    679.75233    236.17704     869.9402   -443.57529            0   -9.9840806            0            0            0            0            0            0 
14954000    928.70796    51050.986    409.10266   -454.86407     623.1427    168.27863     859.7261   -454.86407            0   -10.258167            0            0            0            0            0            0 
14955000    790.16307    51863.809    415.10643   -457.44646     632.2876    174.84113    772.50504   -457.44646            0   -10.097398            0            0            0            0            0            0 
14956000    704.35128    51335.195     372.1603   -468.39383    566.87231    98.478479    625.80597   -468.39383            0   -10.201374            0            0            0            0            0            0 
14957000    779.93136    52199.995    417.75449   -452.86954    636.32111    183.45157    777.20035   -452.86954            0   -10.032368            0            0            0            0            0            0 
14958000    947.69337    50705.412    429.71838   -453.75483    654.54444    200.78961    901.59599   -453.75483            0    -10.32808            0            0            0            0            0            0 
14959000      689.486    53018.611    446.27951   -458.55931    679.77025    221.21093    754.33671   -458.55931            0   -9.8774664            0            0            0            0            0            0 
14960000    930.01086    52012.134    399.05195   -440.32123    607.83351    167.51228    872.96609   -440.32123            0   -10.068603            0            0            0            0            0            0 
14961000    906.92433      49503.6    446.45665   -483.12437    680.04006    196.91569    851.67807   -483.12437            0   -10.578817            0            0            0            0            0            0 
14962000    717.25804    54724.409    421.36461   -436.14758    641.82001    205.67243    778.11562   -436.14758            0   -9.5695788            0            0            0            0            0            0 
14963000    889.53194    51450.853    413.77605   -450.30876    630.26117    179.95241    847.41975   -450.30876            0   -10.178442            0            0            0            0            0            0 
14964000    1011.2818     51406.44    416.54401   -443.75627    634.47731    190.72103    948.88931   -443.75627            0   -10.187236            0            0            0            0            0            0 
14965000    774.84374    51422.398    429.59742   -474.12435    654.36019    180.23584    761.32443   -474.12435            0   -10.184075            0            0            0            0            0            0 
14966000    997.47002    51078.473    437.03633   -441.63294    665.69109    224.05815    967.10063   -441.63294            0   -10.252647            0            0            0            0            0            0 
14967000    893.83225     51870.09     425.8133   -435.76823    648.59623      212.828    888.98712   -435.76823            0   -10.096176            0            0            0            0            0            0 
14968000    1067.0428    50908.818    441.48384   -438.39797    672.46551    234.06754    1026.2965   -438.39797            0   -10.286814            0            0            0            0            0            0 
14969000    906.34609    52901.486    435.66455   -427.61631    663.60161     235.9853    935.24392   -427.61631            0   -9.8993352            0            0            0            0            0            0 
14970000    837.96971    51307.192    435.71091   -452.87646    663.67221    210.79576    837.81728   -452.87646            0   -10.206942            0            0            0            0            0            0 
14971000    852.49468    51675.527    414.93207   -452.17658    632.02202    179.84544    822.31489   -452.17658            0   -10.134189            0            0            0            0            0            0 
14972000    896.63925    50548.882    413.76406   -459.63022    630.24291    170.61269    831.61838   -459.63022            0   -10.360062            0            0            0            0            0            0 
14973000    892.25633    53533.689    429.46587   -426.47873    654.15981    227.68108    924.29588   -426.47873            0   -9.7824297            0            0            0            0            0            0 
14974000    882.26617    50646.133    421.75475   -461.45062    642.41428    180.96365    832.62478   -461.45062            0   -10.340168            0            0            0            0            0            0 
14975000    686.92634    50908.698    403.57838   -475.28974    614.72814     139.4384    649.44764   -475.28974            0   -10.286838            0            0            0            0            0            0 
14976000     819.6386    51722.957    453.76788   -453.87073    691.17648    237.30575    855.58068   -453.87073            0   -10.124896            0            0            0            0            0            0 
14977000    754.12003    52889.645    414.44587   -450.50389    631.28144    180.77755    762.46141   -450.50389            0   -9.9015514            0            0            0            0            0            0 
14978000    1026.4981    49727.742    436.54704   -453.03931     664.9458    211.90649    956.35175   -453.03931            0   -10.531135            0            0            0            0            0            0 
14979000    912.73289    52103.764    411.34292   -431.42698    626.55504    195.12806    888.69548   -431.42698            0   -10.050897            0            0            0            0            0            0 
14980000    853.82535    50560.793    407.00751   -460.20251    619.95137    159.74886     789.3403   -460.20251            0   -10.357621            0            0            0            0            0            0 
14981000    922.01658     51520.19    401.33589   -438.00789     611.3124    173.30451     866.0793   -438.00789            0   -10.164744            0            0            0            0            0            0 
14982000    1101.3739    50113.806     414.2045   -442.48675    630.91378    188.42702    993.37547   -442.48675            0   -10.450006            0            0            0            0            0            0 
14983000    959.92837    53688.419    436.99857   -418.76235    665.63357    246.87122    998.48603   -418.76235            0   -9.7542367            0            0            0            0            0            0 
14984000    767.93827    50952.383    420.68733   -470.07997    640.78839    170.70841    741.35432   -470.07997            0   -10.278019            0            0            0            0            0            0 
14985000    852.90267    51337.472    407.25909   -453.76757    620.33457    166.56701    805.13897   -453.76757            0   -10.200922            0            0            0            0            0            0 
14986000    938.60138    51763.901    429.70563    -444.6288    654.52501    209.89621    918.46835    -444.6288            0   -10.116887            0            0            0            0            0            0 
14987000     933.6024    51290.607    424.93285   -445.40098    647.25514    201.85416    900.20826   -445.40098            0   -10.210243            0            0            0            0            0            0 
14988000    973.81475    50756.138    403.00389   -444.31508    613.85309    169.53801     890.3812   -444.31508            0   -10.317758            0            0            0            0            0            0 
14989000    943.82038    51649.424    405.36336   -435.00019    617.44701    182.44682    893.38317   -435.00019            0    -10.13931            0            0            0            0            0            0 
14990000    952.01348    51489.763    441.23932   -451.58253    672.09305    220.51052    935.40161   -451.58253            0   -10.170751            0            0            0            0            0            0 
14991000    916.94716    52390.237    421.65413   -432.97608    642.26101    209.28493    909.88563   -432.97608            0   -9.9959377            0            0            0            0            0            0 
14992000    958.16614    50936.123    427.81563   -450.85627    651.64617     200.7899    912.56468   -450.85627            0     -10.2813            0            0            0            0            0            0 
14993000    1043.0285    51581.486    416.26141   -431.78172    634.04685    202.26513    986.89694   -431.78172            0   -10.152665            0            0            0            0            0            0 
14994000    1057.0587     50861.31    460.92567     -445.525    702.07918    256.55418    1040.6381     -445.525            0   -10.296423            0            0            0            0            0            0 
14995000    833.33423    52074.073    431.28387   -454.37325    656.92897    202.55572    835.42885   -454.37325            0   -10.056627            0            0            0            0            0            0 
14996000     917.9522    52188.587    423.05916   -433.69268    644.40115    210.70847    909.37749   -433.69268            0   -10.034561            0            0            0            0            0            0 
14997000    814.38476     51357.23    404.42235   -452.47244    616.01368    163.54123    773.50933   -452.47244            0   -10.196997            0            0            0            0            0            0 
14998000    836.81214    53281.196    404.87946   -426.22855    616.70994     190.4814     840.7276   -426.22855            0   -9.8287873            0            0            0            0            0            0 
14999000    1092.8645    49647.365    410.99298   -448.86498    626.02201    177.15703    968.45204   -448.86498            0   -10.548184            0            0            0            0            0            0 
15000000    900.48034    52517.189    443.98101   -440.42054    676.26918    235.84865    925.53494   -440.42054            0   -9.9717741            0            0            0            0            0            0 
Loop time of 1578.91 on 8 procs for 5000000 steps with 512 atoms

Pair  time (%) = 903.151 (57.2008)
Bond  time (%) = 0.458702 (0.0290518)
Neigh time (%) = 37.1142 (2.35062)
Comm  time (%) = 467.569 (29.6133)
Outpt time (%) = 0.317722 (0.0201229)
Other time (%) = 170.302 (10.786)

Nlocal:    64 ave 74 max 54 min
Histogram: 1 0 0 1 1 3 1 0 0 1
Nghost:    1360.12 ave 1422 max 1308 min
Histogram: 2 0 0 2 2 0 0 0 0 2
Neighs:    6319.25 ave 7801 max 5323 min
Histogram: 1 1 1 2 1 1 0 0 0 1

Total # of neighbors = 50554
Ave neighs/atom = 98.7383
Ave special neighs/atom = 0
Neighbor list builds = 94426
Dangerous builds = 0

Averages
Group Pressure(MPa) Volume(m3) Temperature(K) PE(J) KE(J) ET(J) ET^2(J) H(J) H^2(J^2) V^2(m6) V*H(m3*J) Hconf(J) Uext*Hconf(J^2) V*Hconf(m3*J) Uext(J)
Block1 90.190323939902285133 5.1460884838256277521e-26 420.55560084074625138 -3.1349357725583824343e-18 4.4506081446473112652e-18 1.3156723720889351865e-18 1.7657196090501033364e-36 5.9519191699438016194e-18 3.5717839916038224631e-35 2.6495572705040481836e-51 3.0623773669226666725e-43 1.5013110252964880431e-18 -4.6791907739440178486e-36 7.7193869019002016105e-44 -3.1349357725583824343e-18
Block2 90.227262390675292636 5.1486768121855783438e-26 420.25220468308447153 -3.1298173169063430361e-18 4.4473973981784970193e-18 1.3175800812721524424e-18 1.7703940119203442499e-36 5.9566753471496751333e-18 3.5782119369234260927e-35 2.6524052187980546135e-51 3.0657229991981373214e-43 1.5092779489711713732e-18 -4.7000759860689695359e-36 7.759804780591207673e-44 -3.1298173169063430361e-18
Block3 90.067872513088460096 5.1508765738451714716e-26 420.83002364682573671 -3.131246184428220346e-18 4.4535122752150082462e-18 1.3222660907867909817e-18 1.7863181876028679391e-36 5.9559535821817827716e-18 3.5782962251292554869e-35 2.6545782775690730143e-51 3.0670858118913974262e-43 1.5024413069667687476e-18 -4.6777149813787404634e-36 7.7309298094699518847e-44 -3.131246184428220346e-18
Block4 89.497612283625485929 5.1535490326044946735e-26 419.79939336394221527 -3.1316087486160478538e-18 4.4426054378742317798e-18 1.3109966892581893186e-18 1.7549623579670707605e-36 5.9167432767937495735e-18 3.5316874563483824348e-35 2.657419431829269608e-51 3.0479908199153797977e-43 1.474137838919523379e-18 -4.5934566324024918628e-36 7.5847366072742432229e-44 -3.1316087486160478538e-18
Block5 89.839879122151117485 5.1516963958656732003e-26 420.30752732998860211 -3.129953458063565212e-18 4.4479828604155991181e-18 1.3180294023520288987e-18 1.7732364559308886978e-36 5.9404391900553974442e-18 3.5590454498600576616e-35 2.6554550354037635752e-51 3.059388404322744875e-43 1.4924563296397958224e-18 -4.6458621497710389833e-36 7.6795599622348311578e-44 -3.129953458063565212e-18
Ave_blocks 89.964590049888528256 5.1501774596653093178e-26 420.34894997291746677 -3.1315122961145116994e-18 4.4484212232661288694e-18 1.3169089271516194811e-18 1.7701261244942551304e-36 5.9443461132248820788e-18 3.5638050119729890416e-35 2.6538830468208416802e-51 3.0605130804500651389e-43 1.4959248899587493575e-18 -4.6592601047130520061e-36 7.6948836122940879063e-44 -3.1315122961145116994e-18
Stdev_blocks 0.26990400686204435443 2.5742998340298149141e-29 0.34270232383876536586 1.8494993950566156018e-21 3.6267113090802731153e-21 3.6575603911297623497e-21 1.0210641769081637298e-38 1.4975147148003356117e-20 1.7523753433689263947e-37 2.6965470229099705561e-54 6.810161838065512443e-46 1.213659617158059105e-20 3.7184277280472036217e-38 6.0797491052518841567e-46 1.8494993950566156018e-21






Properties
Group rho(kg/m3) Cp(J/K) Cp_conf(J/K) Cp_id(J/K) Cp2(J/K) kT(1/Pa) aP(1/K) aP2(1/K) Cv(J/K) uJT(K/Pa) sos(m/s) Cv2(J/K) uJT2(K/Pa) sos2(m/s) CvNVT(J/K)
Block1 265.0408014368377394 1.1978239788685035527e-19 1.7222537559560515348e-21 3.5519503715503694109e-20 3.724175747145974414e-20 4.4665061430911055887e-09 -0.00042407305714094569241 -0.00051665786227505020034 1.1891100482634018617e-19 -5.0624085241243440321e-07 922.45489766610717197 3.5948339710654530381e-20 -1.6820494772309833032e-06 935.4817713830516368 1.4220747567079251525e-20
Block2 264.90756086883794751 1.2308865353001303442e-19 -1.4169621954381444407e-21 3.550460604552144657e-20 3.4087643850083301377e-20 5.0811507648277544967e-09 -0.00093721462542653598878 -0.00087455595991406105769 1.1934822237858973611e-19 -5.8304059609677134673e-07 875.33202014166784011 3.0830636352376042272e-20 -2.0655551872263449243e-06 906.31471207474862695 1.4098129187894576823e-20
Block3 264.7944279899228377 1.2661206447747293262e-19 9.5909115651456477765e-22 3.553298351858729038e-20 3.6492074675101852149e-20 4.7626015183030681549e-09 -0.00059738113930431918381 -0.00063202029575273497523 1.2498783784476849072e-19 -5.0909729260629352743e-07 896.24577915649842907 3.4674025343420714766e-20 -1.7869280725786803843e-06 913.5253475796495195 1.5512891247532996343e-20
Block4 264.65711442522700736 1.2700615205339478221e-19 -2.1560836737157854557e-21 3.5482382092214892816e-20 3.332629841849911037e-20 5.0642178186445035976e-09 -0.00098238278689841379392 -0.00098131696009064964953 1.2288330398739903171e-19 -5.7311331724852888001e-07 878.14850077651180982 2.9212391588661490805e-20 -2.1834365610734632614e-06 922.59693520075006745 1.4898469002691499285e-20
Block5 264.75228957836066002 1.236706562545897951e-19 8.2977512509770480223e-24 3.5507322137232479256e-20 3.5515619888483454799e-20 4.8752395706905888542e-09 -0.0007524875559938630715 -0.00072597058038308549376 1.2115575978315263293e-19 -5.4831562138312467471e-07 889.29009823090484588 3.3174845754155065765e-20 -1.8931495979748753674e-06 910.72529738998343873 1.4774281646615151094e-20
Ave_blocks 264.8304388598372725 1.2403198484046417511e-19 -1.766806410864673072e-22 3.5509359501811958219e-20 3.5332678860725496178e-20 4.8499431631114038076e-09 -0.00073870783295281556777 -0.00074610433168311623194 1.2145722576405002034e-19 -5.4396153594943056642e-07 892.29425919433799663 3.2768047749853567594e-20 -1.9222237792168696175e-06 917.72881272563665789 1.4700903730362696218e-20
Stdev_blocks 0.13239763642516494402 2.6299012577794968564e-21 1.4412828400960037871e-21 1.6825730710599965126e-23 1.4558792444888358088e-21 2.2568252150821939767e-10 0.00020877767461751446307 0.00016606686537474224801 2.2592449555007880899e-21 3.1731129148713038015e-08 16.864896329510951745 2.4620619740013826421e-21 1.8199447327392447649e-07 10.352450893227659989 5.0943638928742096032e-22






