LAMMPS (28 Oct 2012)
Scanning data file ...
Reading data file ...
  orthogonal box = (0 0 0) to (100 100 100)
  2 by 2 by 2 MPI processor grid
  512 atoms
Finding 1-2 1-3 1-4 neighbors ...
  0 = max # of 1-2 neighbors
  0 = max # of 1-3 neighbors
  0 = max # of 1-4 neighbors
  1 = max # of special neighbors
WARNING: Resetting reneighboring criteria during minimization (min.cpp:173)
Setting up minimization ...
Memory usage per processor = 4.05499 Mbytes
Step Temp E_pair E_mol TotEng Press 
       0       580.15    1409.7233            0    2293.4043    452.91153 
     701       580.15   -217.27527            0     666.4057    40.166635 
Loop time of 0.0558857 on 8 procs for 701 steps with 512 atoms

Minimization stats:
  Stopping criterion = energy tolerance
  Energy initial, next-to-last, final = 
         1409.72334813     -217.256630745     -217.275265106
  Force two-norm initial, final = 5034.49 0.337455
  Force max component initial, final = 2457.89 0.147661
  Final line search alpha, max atom move = 0.254892 0.0376377
  Iterations, force evaluations = 701 710

Pair  time (%) = 0.00897616 (16.0617)
Bond  time (%) = 5.96046e-05 (0.106655)
Neigh time (%) = 0.00313798 (5.61499)
Comm  time (%) = 0.0225898 (40.4215)
Outpt time (%) = 0 (0)
Other time (%) = 0.0211221 (37.7952)

Nlocal:    64 ave 74 max 52 min
Histogram: 1 0 0 1 1 2 0 2 0 1
Nghost:    235.125 ave 266 max 224 min
Histogram: 4 0 2 0 0 1 0 0 0 1
Neighs:    316.25 ave 371 max 226 min
Histogram: 1 0 0 1 1 1 0 1 0 3

Total # of neighbors = 2530
Ave neighs/atom = 4.94141
Ave special neighs/atom = 0
Neighbor list builds = 60
Dangerous builds = 0
Setting up run ...
Memory usage per processor = 3.36354 Mbytes
Step Temp E_pair E_mol TotEng Press Volume 
     701       580.15   -217.27527            0     666.4057    40.166635      1000000 
 5000701    599.57142    -281.9103            0    631.35325    1155.2693    65827.691 
Loop time of 1336.14 on 8 procs for 5000000 steps with 512 atoms

Pair  time (%) = 711.699 (53.2654)
Bond  time (%) = 0.441785 (0.0330644)
Neigh time (%) = 37.4363 (2.80183)
Comm  time (%) = 426.865 (31.9477)
Outpt time (%) = 4.02033e-05 (3.00892e-06)
Other time (%) = 159.694 (11.952)

Nlocal:    64 ave 78 max 51 min
Histogram: 1 1 1 1 0 1 0 2 0 1
Nghost:    1154.12 ave 1189 max 1102 min
Histogram: 1 0 0 1 0 1 1 3 0 1
Neighs:    5048.12 ave 6269 max 4122 min
Histogram: 2 1 1 0 0 1 1 1 0 1

Total # of neighbors = 40385
Ave neighs/atom = 78.877
Ave special neighs/atom = 0
Neighbor list builds = 111005
Dangerous builds = 12
Setting up run ...
Memory usage per processor = 3.967 Mbytes
Step Press Volume Temp PotEng KinEng TotEng Enthalpy E_vdwl E_coul E_tail E_long E_bond E_angle E_dihed E_impro E_mol 
10000000    1155.2693    65827.691    599.57142    -281.9103    913.26354    631.35325    1740.4457    -281.9103            0   -7.9554597            0            0            0            0            0            0 
10001000    920.78456    67584.745    577.71233   -304.48409    879.96792    575.48382     1483.059   -304.48409            0   -7.7486354            0            0            0            0            0            0 
10002000    870.96598    65832.978    578.91006   -317.05242     881.7923    564.73988    1400.9599   -317.05242            0   -7.9548208            0            0            0            0            0            0 
10003000    930.17549    66241.901    564.04308   -313.84818      859.147    545.29882    1443.9136   -313.84818            0   -7.9057143            0            0            0            0            0            0 
10004000    969.67086    69812.909    613.14281   -287.52437     933.9354    646.41104    1633.6811   -287.52437            0   -7.5013282            0            0            0            0            0            0 
10005000    920.07331    64846.928    579.69005   -324.99377    882.98037     557.9866    1428.1238   -324.99377            0   -8.0757804            0            0            0            0            0            0 
10006000    843.36332    65175.718    565.24928   -335.59447    860.98428    525.38981    1327.0243   -335.59447            0   -8.0350407            0            0            0            0            0            0 
10007000    863.40935    68219.727    587.49763   -315.83107    894.87283    579.04177    1438.0605   -315.83107            0   -7.6765119            0            0            0            0            0            0 
10008000    984.77644    63436.864    569.79597   -335.67681    867.90977    532.23296    1443.3103   -335.67681            0   -8.2552874            0            0            0            0            0            0 
10009000    823.47914    67375.033    612.69248   -330.15151    933.24947    603.09796    1412.2451   -330.15151            0   -7.7727538            0            0            0            0            0            0 
10010000    1077.5349    67177.128    614.01592   -280.10074    935.26533    655.16459    1710.8358   -280.10074            0   -7.7956525            0            0            0            0            0            0 
10011000     958.5403    63314.477    546.43069   -327.74283    832.31991    504.57708    1389.6709   -327.74283            0   -8.2712449            0            0            0            0            0            0 
10012000    909.35992    66270.396    617.31932   -321.53553    940.29705    618.76152    1497.6449   -321.53553            0    -7.902315            0            0            0            0            0            0 
10013000     802.1796    66312.614    611.47402   -342.87774    931.39353    588.51579    1364.3049   -342.87774            0   -7.8972839            0            0            0            0            0            0 
10014000    943.46874    63377.162    588.60668    -346.2063    896.56212    550.35583    1422.3954    -346.2063            0    -8.263064            0            0            0            0            0            0 
10015000     915.0688    68887.338     562.7577   -288.43921    857.18911     568.7499    1488.0748   -288.43921            0   -7.6021161            0            0            0            0            0            0 
10016000    897.11151    65748.772    566.66093   -325.58044     863.1345    537.55406    1397.7749   -325.58044            0   -7.9650088            0            0            0            0            0            0 
10017000    831.35533     66566.46    571.57395   -324.46541    870.61798    546.15257    1353.2353   -324.46541            0   -7.8671683            0            0            0            0            0            0 
10018000    830.78962    64710.674    606.82476   -347.69362    924.31179    576.61817    1360.6666   -347.69362            0   -8.0927846            0            0            0            0            0            0 
10019000     1022.059    62904.007    582.64806   -335.38565    887.48598    552.10034    1489.7275   -335.38565            0   -8.3252176            0            0            0            0            0            0 
10020000    697.45321    70344.584    580.58639   -322.90704    884.34567    561.43862    1276.9584   -322.90704            0   -7.4446321            0            0            0            0            0            0 
10021000     937.9422    64537.239    566.25541   -325.80418    862.51681    536.71264    1419.5127   -325.80418            0   -8.1145328            0            0            0            0            0            0 
10022000    877.05819    67161.058    608.90164   -321.65903    927.47529    605.81625    1464.8729   -321.65903            0   -7.7975178            0            0            0            0            0            0 
10023000    902.51483    65762.999    550.77954   -317.84834    838.94406    521.09572     1386.685   -317.84834            0   -7.9632856            0            0            0            0            0            0 
10024000    904.93939    62175.509    567.35421   -345.46049     864.1905    518.73001    1339.2983   -345.46049            0   -8.4227625            0            0            0            0            0            0 
10025000    855.90815    69658.223    597.04789   -295.82789    909.41973    613.59183    1483.1036   -295.82789            0    -7.517986            0            0            0            0            0            0 
10026000    830.82982    64521.695    572.98872   -341.57892    872.77295    531.19403    1312.9905   -341.57892            0   -8.1164877            0            0            0            0            0            0 
10027000    752.68048    66504.776    584.51978    -346.3186    890.33698    544.01839    1274.0462    -346.3186            0   -7.8744652            0            0            0            0            0            0 
10028000    920.89686    64228.178    588.79485   -329.25984    896.84875    567.58891    1430.1949   -329.25984            0   -8.1535793            0            0            0            0            0            0 
10029000     977.0687    66843.228    606.79251    -305.0211    924.26268    619.24158    1571.7271    -305.0211            0   -7.8345939            0            0            0            0            0            0 
10030000    849.21474    63682.546    583.07869   -344.13481    888.14193    544.00712    1332.7107   -344.13481            0   -8.2234391            0            0            0            0            0            0 
10031000     818.5271    67541.488    592.77455   -322.84456    902.91059    580.06604    1386.3343   -322.84456            0    -7.753598            0            0            0            0            0            0 
10032000    875.96134     64728.85    574.42623   -329.02898    874.96255    545.93358    1372.8445   -329.02898            0   -8.0905121            0            0            0            0            0            0 
10033000    934.35325    64854.664    598.46831   -331.02265     911.5833    580.56065    1464.3082   -331.02265            0    -8.074817            0            0            0            0            0            0 
10034000    935.56509    66111.839    577.56204   -325.13956      879.739    554.59944    1456.6464   -325.13956            0   -7.9212673            0            0            0            0            0            0 
10035000    874.58186    69584.195    581.73178   -290.73683    886.09032    595.35349    1482.8915   -290.73683            0   -7.5259841            0            0            0            0            0            0 
10036000    1006.7438    65031.641    615.44144   -318.28446    937.43667    619.15221    1573.9679   -318.28446            0   -8.0528423            0            0            0            0            0            0 
10037000    830.03407    65785.093    593.37875   -336.62881    903.83091     567.2021    1363.5435   -336.62881            0   -7.9606112            0            0            0            0            0            0 
10038000    929.93907    63412.309    588.04659   -344.79121      895.709    550.91779    1410.9287   -344.79121            0   -8.2584841            0            0            0            0            0            0 
10039000    896.72587    67844.166    565.87869   -307.58894    861.94298    554.35404    1441.6083   -307.58894            0   -7.7190063            0            0            0            0            0            0 
10040000    952.25413    65686.862    617.62928    -320.7499    940.76917    620.01926    1532.2554    -320.7499            0   -7.9725158            0            0            0            0            0            0 
10041000    869.27225    67036.167    594.27524   -317.03049    905.19645    588.16596    1438.0132   -317.03049            0   -7.8120449            0            0            0            0            0            0 
10042000    930.73689    65623.635    610.53188   -325.57349    929.95845    604.38496    1495.1499   -325.57349            0   -7.9801972            0            0            0            0            0            0 
10043000    794.53562    66916.062    573.46208   -328.43723    873.49397    545.05674    1320.4457   -328.43723            0   -7.8260664            0            0            0            0            0            0 
10044000    892.73915    65918.999     541.2608   -317.18548    824.44517    507.25969    1365.5043   -317.18548            0   -7.9444401            0            0            0            0            0            0 
10045000    885.21375    68546.741    650.53593   -317.83743    990.89238    673.05495    1557.9889   -317.83743            0   -7.6398898            0            0            0            0            0            0 
10046000    834.67579    68293.267    605.95789   -323.29123    922.99138    599.70016    1431.0266   -323.29123            0   -7.6682456            0            0            0            0            0            0 
10047000    852.61822    65407.193    592.25774   -336.68786     902.1234    565.43554    1378.7454   -336.68786            0   -8.0066048            0            0            0            0            0            0 
10048000    915.57571    65771.752    587.08616   -321.44554    894.24608    572.80054    1451.0332   -321.44554            0   -7.9622259            0            0            0            0            0            0 
10049000    810.81366    66058.279    540.75308   -330.75065    823.67181    492.92116    1274.0527   -330.75065            0   -7.9276899            0            0            0            0            0            0 
10050000    810.25632    65398.846     571.5576   -341.99354    870.59307    528.59953    1301.4018   -341.99354            0   -8.0076266            0            0            0            0            0            0 
10051000    989.59011    64594.024    546.21461   -321.04041    831.99079    510.95037    1443.1815   -321.04041            0   -8.1073993            0            0            0            0            0            0 
10052000    908.53726     65922.34    572.29107   -310.68507    871.71029    561.02522    1434.5018   -310.68507            0   -7.9440376            0            0            0            0            0            0 
10053000    971.46893    64668.208    632.77594   -323.90632    963.84048    639.93416    1556.1454   -323.90632            0    -8.098099            0            0            0            0            0            0 
10054000    963.36589    63753.734    601.61914   -330.30718    916.38262    586.07545    1481.7965   -330.30718            0   -8.2142568            0            0            0            0            0            0 
10055000    725.52298    67848.638    563.75686   -331.18642    858.71102     527.5246    1245.4316   -331.18642            0   -7.7184975            0            0            0            0            0            0 
10056000    1038.3368    65249.945    573.54619   -301.29595    873.62207    572.32612    1560.4111   -301.29595            0   -8.0259002            0            0            0            0            0            0 
10057000    875.09038     66986.67    612.14911   -322.71618    932.42181    609.70563    1464.6093   -322.71618            0   -7.8178173            0            0            0            0            0            0 
10058000    958.08749    63594.483    565.32243   -332.58751    861.09569    528.50818    1417.0963   -332.58751            0   -8.2348267            0            0            0            0            0            0 
10059000    763.29509    68533.429    587.62621   -324.07804    895.06868    570.99064    1333.8963   -324.07804            0   -7.6413737            0            0            0            0            0            0 
10060000    917.53946     65603.05    600.59411   -321.95407     914.8213    592.86723     1470.726   -321.95407            0   -7.9827012            0            0            0            0            0            0 
10061000    931.63731    64341.991    597.46965   -331.01123    910.06215    579.05092    1453.2639   -331.01123            0   -8.1391567            0            0            0            0            0            0 
10062000    800.90319    66718.055    568.29043   -330.89968    865.61653    534.71686    1314.0072   -330.89968            0   -7.8492928            0            0            0            0            0            0 
10063000    960.81758    63838.275    581.07227    -337.6644    885.08576    547.42136    1441.9577    -337.6644            0   -8.2033787            0            0            0            0            0            0 
10064000    742.02646    67809.444    567.32356   -331.57057     864.1438    532.57323    1266.3863   -331.57057            0   -7.7229589            0            0            0            0            0            0 
10065000    981.23286    62488.236    612.35526   -342.13478    932.73582    590.60104    1484.8249   -342.13478            0   -8.3806101            0            0            0            0            0            0 
10066000    892.33016    66023.932      578.201   -317.14516    880.71225    563.56709    1422.7841   -317.14516            0    -7.931814            0            0            0            0            0            0 
10067000    931.71468    66799.791    631.59298   -308.70256    962.03859    653.33603    1561.0185   -308.70256            0   -7.8396884            0            0            0            0            0            0 
10068000     951.3445    64886.808    555.23221   -314.30629    845.72634    531.42004    1431.6845   -314.30629            0   -8.0708169            0            0            0            0            0            0 
10069000    876.75129    62003.742    552.72408   -353.55335    841.90597    488.35262    1281.1646   -353.55335            0   -8.4460958            0            0            0            0            0            0 
10070000    948.52796    66918.773    592.60152   -309.54298    902.64704    593.10406     1518.812   -309.54298            0   -7.8257494            0            0            0            0            0            0 
10071000    928.75363    65979.284    604.72856   -314.65375    921.11888    606.46513    1500.1492   -314.65375            0   -7.9371814            0            0            0            0            0            0 
10072000     764.8449    67029.019     566.8834   -322.50832    863.47335    540.96503    1288.6388   -322.50832            0    -7.812878            0            0            0            0            0            0 
10073000    821.01327    63054.246    608.77363   -366.88266     927.2803    560.39764    1315.3863   -366.88266            0   -8.3053811            0            0            0            0            0            0 
10074000     819.4738    67159.158    581.63593   -330.13875    885.94432    555.80557    1358.4371   -330.13875            0   -7.7977384            0            0            0            0            0            0 
10075000    821.15649    66887.149    558.09814   -315.86432    850.09171    534.22739    1335.2495   -315.86432            0   -7.8294493            0            0            0            0            0            0 
10076000     1007.425    62540.683    619.75788   -343.11893    944.01144    600.89251    1519.7565   -343.11893            0   -8.3735821            0            0            0            0            0            0 
10077000    795.19851    68283.603    590.89371   -316.25087    900.04571    583.79485    1375.6903   -316.25087            0   -7.6693309            0            0            0            0            0            0 
10078000    827.09529    64947.476    565.88468   -345.12655    861.95212    516.82557    1300.2439   -345.12655            0   -8.0632779            0            0            0            0            0            0 
10079000    1004.9973    62302.317    563.66045   -331.88245    858.56419    526.68173    1439.8377   -331.88245            0   -8.4056191            0            0            0            0            0            0 
10080000    839.79822    67320.157    572.48911   -323.15935    872.01194    548.85258    1373.3626   -323.15935            0   -7.7790898            0            0            0            0            0            0 
10081000    755.40435    67629.131    574.92836   -333.68462    875.72739    542.04277    1287.0992   -333.68462            0   -7.7435498            0            0            0            0            0            0 
10082000     917.4906    66259.832    552.74976   -322.54893    841.94508    519.39615    1405.9964   -322.54893            0   -7.9035749            0            0            0            0            0            0 
10083000        945.6    66031.827    591.75229   -320.58272     901.3535    580.77078    1491.3897   -320.58272            0   -7.9308655            0            0            0            0            0            0 
10084000    828.34747    65827.041    577.54755   -334.48027    879.71693    545.23666    1340.4667   -334.48027            0   -7.9555383            0            0            0            0            0            0 
10085000    923.49154    66096.418    566.27195   -313.21923      862.542    549.32276     1439.521   -313.21923            0   -7.9231154            0            0            0            0            0            0 
10086000    1003.9549    64594.589    568.79558   -316.42698    866.38598      549.959    1495.7305   -316.42698            0   -8.1073283            0            0            0            0            0            0 
10087000    890.43472    71633.292    641.33079   -297.22571    976.87116    679.64545    1609.8809   -297.22571            0   -7.3107006            0            0            0            0            0            0 
10088000    909.77239    64641.452      579.295   -332.80244    882.37863    549.57619    1407.2453   -332.80244            0   -8.1014509            0            0            0            0            0            0 
10089000    763.24282     66786.07    535.16215   -329.71466    815.15574    485.44108    1228.8444   -329.71466            0   -7.8412991            0            0            0            0            0            0 
10090000    886.46035    65221.332    573.99345   -323.25277    874.30334    551.05057    1394.2394   -323.25277            0   -8.0294212            0            0            0            0            0            0 
10091000    975.71363    65716.837    588.31128   -313.53202    896.11218    582.58016    1517.7165   -313.53202            0   -7.9688793            0            0            0            0            0            0 
10092000    857.71058    65791.666    565.22903   -334.61311    860.95343    526.34032     1349.317   -334.61311            0   -7.9598158            0            0            0            0            0            0 
10093000    772.37169    64960.205    593.78235    -342.6942    904.44567    561.75147    1293.4794    -342.6942            0   -8.0616978            0            0            0            0            0            0 
10094000    923.23519    68250.274    571.28349   -303.45935    870.17554    566.71619    1485.6678   -303.45935            0   -7.6730761            0            0            0            0            0            0 
10095000    994.81019    64438.329    607.13694   -332.72314     924.7873    592.06416    1526.9539   -332.72314            0   -8.1269883            0            0            0            0            0            0 
10096000    720.38504    68630.154    562.73817   -326.94616    857.15937    530.21321    1251.2469   -326.94616            0   -7.6306042            0            0            0            0            0            0 
10097000    1009.0167    64040.232    587.46012   -322.48321    894.81569    572.33248    1514.7148   -322.48321            0   -8.1775086            0            0            0            0            0            0 
10098000    768.78011    69520.391    567.41447   -315.61284    864.28228    548.66944     1328.123   -315.61284            0   -7.5328913            0            0            0            0            0            0 
10099000    1022.7276    64379.278     580.6434   -315.48962    884.43251    568.94289    1529.1876   -315.48962            0   -8.1344427            0            0            0            0            0            0 
10100000    956.15431    67764.491    571.57438   -293.57967    870.61864    577.03897    1521.9829   -293.57967            0   -7.7280821            0            0            0            0            0            0 
10101000     921.9009    64710.041    582.15738   -338.33807    886.73859    548.40052    1418.4257   -338.33807            0   -8.0928638            0            0            0            0            0            0 
10102000    894.05525    65187.851    558.62917   -336.56473    850.90057    514.33584    1364.3123   -336.56473            0   -8.0335451            0            0            0            0            0            0 
10103000    811.49233    68924.273    555.29449   -313.07872     845.8212    532.74248    1348.4463   -313.07872            0   -7.5980424            0            0            0            0            0            0 
10104000    868.57999    65109.321     585.0958   -332.45386    891.21438    558.76051     1383.523   -332.45386            0   -8.0432347            0            0            0            0            0            0 
10105000    945.69356    65390.767      593.224   -317.67684     903.5952    585.91836    1487.7859   -317.67684            0   -8.0086161            0            0            0            0            0            0 
10106000    903.51456    65273.956    588.57555   -325.29673     896.5147    571.21798     1431.322   -325.29673            0   -8.0229479            0            0            0            0            0            0 
10107000    783.42525    67905.866    587.87967   -327.95348    895.45475    567.50127    1343.3566   -327.95348            0   -7.7119927            0            0            0            0            0            0 
10108000    967.24355    65270.874    542.66988   -317.88062    826.59147    508.71084    1429.4384   -317.88062            0   -8.0233267            0            0            0            0            0            0 
10109000    664.19874    68432.669    543.74885   -342.52733    828.23496    485.70763    1148.5914   -342.52733            0   -7.6526248            0            0            0            0            0            0 
10110000    855.88713    66778.126    572.10527   -324.57098    871.42728    546.85629    1380.3966   -324.57098            0   -7.8422318            0            0            0            0            0            0 
10111000     908.0434    66145.368    598.28036   -327.51348    911.29701    583.78354    1459.7388   -327.51348            0   -7.9172519            0            0            0            0            0            0 
10112000    992.73553    63349.967    591.87213   -333.12342    901.53603    568.41261    1485.5953   -333.12342            0   -8.2666111            0            0            0            0            0            0 
10113000    811.01073    70638.392    577.14487   -292.67694    879.10356    586.42662    1421.9205   -292.67694            0   -7.4136674            0            0            0            0            0            0 
10114000    819.53691    67380.178    588.22803   -320.09845    895.98537    575.88693    1381.2219   -320.09845            0   -7.7721603            0            0            0            0            0            0 
10115000    884.65115    63860.752     567.8126   -343.94131    864.88871     520.9474    1344.8616   -343.94131            0   -8.2004914            0            0            0            0            0            0 
10116000    909.42127    64954.592    551.14431   -329.14931    839.49967    510.35036    1371.8416   -329.14931            0   -8.0623945            0            0            0            0            0            0 
10117000    891.83622    66444.234    603.85983    -322.6218    919.79564    597.17384    1461.3819    -322.6218            0   -7.8816402            0            0            0            0            0            0 
10118000    995.14461    66309.415    595.45743   -308.97374    906.99715    598.02342    1560.3828   -308.97374            0    -7.897665            0            0            0            0            0            0 
10119000    954.33802    66289.666    564.87885   -319.47943    860.42003     540.9406    1463.5629   -319.47943            0   -7.9000179            0            0            0            0            0            0 
10120000     970.1356    63011.566    570.94513   -336.60702    869.66017    533.05315     1424.568   -336.60702            0   -8.3110067            0            0            0            0            0            0 
10121000    746.97866    68565.483    561.97106   -316.30276    855.99092    539.68816    1286.6349   -316.30276            0   -7.6378015            0            0            0            0            0            0 
10122000    917.28968    64045.463    609.14045   -336.44911    927.83903    591.38993    1448.1728   -336.44911            0   -8.1768406            0            0            0            0            0            0 
10123000    1000.5161    63458.122    594.17122   -329.92836      905.038    575.10964    1501.0589   -329.92836            0   -8.2525219            0            0            0            0            0            0 
10124000    859.04574    66881.863    572.65578   -322.50969    872.26581    549.75612    1387.6722   -322.50969            0   -7.8300682            0            0            0            0            0            0 
10125000    862.84908    66529.917     576.9676   -317.30441    878.83355    561.52915    1398.7262   -317.30441            0   -7.8714895            0            0            0            0            0            0 
10126000    1069.1713    61907.276    592.33199    -335.7462    902.23649    566.49029     1531.796    -335.7462            0   -8.4592568            0            0            0            0            0            0 
10127000    931.79396    66909.857    607.02477   -320.64199    924.61645    603.97446    1513.2298   -320.64199            0   -7.8267922            0            0            0            0            0            0 
10128000    894.41215    65792.364     582.8881   -331.30184    887.85163    556.54978    1414.7509   -331.30184            0   -7.9597314            0            0            0            0            0            0 
10129000    933.48929     64169.01    558.36589   -332.83367    850.49954    517.66586    1391.2617   -332.83367            0   -8.1610975            0            0            0            0            0            0 
10130000    932.90234    65468.292    559.26033   -318.32936    851.86195    533.53259    1424.2564   -318.32936            0   -7.9991326            0            0            0            0            0            0 
10131000    792.76777     69859.33      604.438    -308.3518     920.6763     612.3245    1420.0174    -308.3518            0   -7.4963437            0            0            0            0            0            0 
10132000    859.94752    63295.406    590.22071    -353.5195    899.02061     545.5011    1339.3174    -353.5195            0    -8.273737            0            0            0            0            0            0 
10133000    883.21706      69766.5    573.52429    -291.0408    873.58873    582.54793    1481.1973    -291.0408            0   -7.5063181            0            0            0            0            0            0 
10134000    787.23371    65735.716    566.94045   -336.14926    863.56026      527.411    1282.1225   -336.14926            0   -7.9665907            0            0            0            0            0            0 
10135000    786.89294    65550.908    547.18613      -340.19    833.47059    493.28059    1245.5445      -340.19            0    -7.989051            0            0            0            0            0            0 
10136000    925.95762    66683.469    580.66305    -326.0027    884.46243    558.45973    1458.9628    -326.0027            0   -7.8533639            0            0            0            0            0            0 
10137000    838.06205    68359.192    573.56899   -307.87252    873.65681    565.78428    1401.2891   -307.87252            0   -7.6608504            0            0            0            0            0            0 
10138000    934.00987    65435.741    599.94049   -332.64616    913.82571    581.17955    1472.5175   -332.64616            0   -8.0031117            0            0            0            0            0            0 
10139000    928.99853    65341.579     638.4723   -324.00936    972.51714    648.50778    1533.7876   -324.00936            0   -8.0146448            0            0            0            0            0            0 
10140000    897.71295    67061.815    588.34501   -313.96137    896.16355    582.20218    1460.1904   -313.96137            0   -7.8090572            0            0            0            0            0            0 
10141000    943.17392    63482.257    588.03279    -345.1215    895.68797    550.56647    1423.7791    -345.1215            0   -8.2493845            0            0            0            0            0            0 
10142000    826.78379    69903.841    588.47744   -309.00913    896.36527    587.35614    1430.2422   -309.00913            0   -7.4915704            0            0            0            0            0            0 
10143000    856.05935    63202.777    601.77138   -359.73889    916.61452    556.87564    1345.9464   -359.73889            0   -8.2858629            0            0            0            0            0            0 
10144000    829.77521    68569.135    583.00438   -320.74149    888.02873    567.28725    1397.0712   -320.74149            0   -7.6373947            0            0            0            0            0            0 
10145000    939.79105    65687.191    606.83425   -336.45835    924.32625    587.86789    1488.1692   -336.45835            0   -7.9724758            0            0            0            0            0            0 
10146000    920.32069    65435.453    597.94716   -333.98099    910.78949     576.8085    1455.0788   -333.98099            0    -8.003147            0            0            0            0            0            0 
10147000    851.07071    65099.558    569.30565   -334.67484    867.16291    532.48807    1340.5034   -334.67484            0   -8.0444408            0            0            0            0            0            0 
10148000    871.65394     68882.93    575.14373   -303.92551    876.05544    572.12993     1447.782   -303.92551            0   -7.6026027            0            0            0            0            0            0 
10149000    979.69292    61918.345    584.77254   -350.15111    890.72198    540.57088    1425.2488   -350.15111            0   -8.4577445            0            0            0            0            0            0 
10150000    895.40999    66323.057     583.3546   -314.74241    888.56219    573.81977    1439.9084   -314.74241            0   -7.8960406            0            0            0            0            0            0 
10151000    874.85049    66828.749    592.28677   -323.82115    902.16762    578.34647    1431.0009   -323.82115            0   -7.8362913            0            0            0            0            0            0 
10152000    1039.4233    66598.017    580.56735   -298.77266    884.31667    585.54401    1595.0982   -298.77266            0   -7.8634405            0            0            0            0            0            0 
10153000    950.93409    64946.802    609.93056   -330.99825    929.04254    598.04429    1498.7524   -330.99825            0   -8.0633615            0            0            0            0            0            0 
10154000    827.28653    66832.815    591.48402   -335.75756    900.94487    565.18732    1371.5336   -335.75756            0   -7.8358145            0            0            0            0            0            0 
10155000    943.62155     64795.03    577.29173   -330.36453    879.32727    548.96274    1440.6559   -330.36453            0   -8.0822486            0            0            0            0            0            0 
10156000    787.59508    65534.635    535.43992   -339.54008    815.57884    476.03876     1228.787   -339.54008            0   -7.9910348            0            0            0            0            0            0 
10157000    930.20677    64185.726    570.34999   -332.22989    868.75365    536.52376    1407.2745   -332.22989            0    -8.158972            0            0            0            0            0            0 
10158000    885.81867    67120.717    606.89119   -328.41412    924.41298    595.99885    1463.1151   -328.41412            0   -7.8022043            0            0            0            0            0            0 
10159000    835.98415    63064.992    572.21547   -349.80107    871.59514    521.79407    1290.6806   -349.80107            0   -8.3039659            0            0            0            0            0            0 
10160000    792.27707    65215.698    551.75054   -339.19958    840.42307     501.2235    1254.7614   -339.19958            0   -8.0301148            0            0            0            0            0            0 
10161000    966.18307    67888.655    615.38279   -308.88533    937.34733      628.462    1585.0667   -308.88533            0   -7.7139479            0            0            0            0            0            0 
10162000    1032.0769    66709.044    579.40748   -297.98377    882.54996    584.56619    1588.6563   -297.98377            0    -7.850353            0            0            0            0            0            0 
10163000    872.45096    66350.747    561.20661   -327.70942     854.8265    527.11708    1371.3509   -327.70942            0   -7.8927453            0            0            0            0            0            0 
10164000    854.60281    65636.879    552.43132   -327.19501    841.46004    514.26503    1332.3306   -327.19501            0   -7.9785869            0            0            0            0            0            0 
10165000    793.35131    70571.448    559.53312   -292.88636    852.27746     559.3911    1375.9179   -292.88636            0   -7.4207001            0            0            0            0            0            0 
10166000    948.98237    64743.411    610.55958   -328.00614    930.00065    601.99451    1498.0391   -328.00614            0   -8.0886925            0            0            0            0            0            0 
10167000    829.64237    66821.154    592.43219   -323.75995    902.38912    578.62917    1387.1306   -323.75995            0    -7.837182            0            0            0            0            0            0 
10168000    943.69782    62660.576    582.39957   -353.73769    887.10749     533.3698    1395.7588   -353.73769            0   -8.3575603            0            0            0            0            0            0 
10169000    805.14518    68708.199      558.344   -315.54063     850.4662    534.92557    1341.7121   -315.54063            0   -7.6219367            0            0            0            0            0            0 
10170000    760.65638     66269.33    584.51799   -342.58308    890.33425    547.75117    1282.9029   -342.58308            0   -7.9024421            0            0            0            0            0            0 
10171000    989.09638    65014.876    624.99376   -322.29277    951.98671    629.69394    1567.5307   -322.29277            0   -8.0549188            0            0            0            0            0            0 
10172000    885.54547    69495.063    566.19513   -303.05593    862.42498    559.36905     1456.882   -303.05593            0   -7.5356367            0            0            0            0            0            0 
10173000    939.52508     64231.33    620.08686   -339.16102    944.51254    605.35152    1485.4498   -339.16102            0   -8.1531792            0            0            0            0            0            0 
10174000     959.8099    65138.026    583.02851   -320.21348     888.0655    567.85201    1479.6439   -320.21348            0   -8.0396901            0            0            0            0            0            0 
10175000    909.35187    67209.543    577.68994   -307.35367    879.93381    572.58015    1463.9107   -307.35367            0   -7.7918927            0            0            0            0            0            0 
10176000     941.2109    64159.353       568.21   -326.21606    865.49403    539.27796    1419.9675   -326.21606            0   -8.1623259            0            0            0            0            0            0 
10177000     926.0989    64078.832    575.84212   -339.66784    877.11922    537.45138    1402.9131   -339.66784            0   -8.1725825            0            0            0            0            0            0 
10178000    774.09161    66640.842    541.59553   -331.22729    824.95503    493.72774    1246.0583   -331.22729            0   -7.8583873            0            0            0            0            0            0 
10179000    826.96952    65985.063     595.6959   -337.33576    907.36039    570.02463    1365.8376   -337.33576            0   -7.9364862            0            0            0            0            0            0 
10180000    927.61364    62945.331    582.28659   -347.70803     886.9354    539.22737    1390.7703   -347.70803            0    -8.319752            0            0            0            0            0            0 
10181000    706.11223    68495.427    559.35469   -323.70234    852.00566    528.30332    1233.6639   -323.70234            0   -7.6456132            0            0            0            0            0            0 
10182000    949.25135    62765.091    586.51403   -353.28044    893.37461    540.09417    1409.0051   -353.28044            0   -8.3436435            0            0            0            0            0            0 
10183000    830.49718    67157.235    578.14648   -328.02612    880.62922     552.6031    1366.0081   -328.02612            0   -7.7979617            0            0            0            0            0            0 
10184000    958.08483    67947.538    615.43784   -307.93385    937.43118    629.49733    1578.9069   -307.93385            0    -7.707263            0            0            0            0            0            0 
10185000    802.40412    66200.053    600.73811   -343.20557    915.04064    571.83507     1346.524   -343.20557            0   -7.9107119            0            0            0            0            0            0 
10186000    901.84254    67849.233    558.65527   -299.93121    850.94032    551.00911    1443.3927   -299.93121            0   -7.7184299            0            0            0            0            0            0 
10187000    897.72389    65712.739     585.0137   -315.99613    891.08932    575.09319    1435.4295   -315.99613            0   -7.9693763            0            0            0            0            0            0 
10188000    953.06745    64973.236     586.5613   -321.00672    893.44661    572.43989    1475.5361   -321.00672            0    -8.060081            0            0            0            0            0            0 
10189000    945.77252    67259.151    583.83144   -313.20331    889.28851     576.0852    1503.7989   -313.20331            0   -7.7861456            0            0            0            0            0            0 
10190000    833.90307    65687.313    573.02859   -335.14691    872.83367    537.68676     1336.551   -335.14691            0    -7.972461            0            0            0            0            0            0 
10191000    1036.7743    64270.659    562.97843    -314.2061    857.52534    543.31924    1515.1102    -314.2061            0     -8.14819            0            0            0            0            0            0 
10192000    936.85723    69994.172    604.26612   -281.52359    920.41449     638.8909    1595.2284   -281.52359            0   -7.4819022            0            0            0            0            0            0 
10193000    809.78632    65297.073    559.90696   -338.00769    852.84689    514.83919    1285.9913   -338.00769            0   -8.0201075            0            0            0            0            0            0 
10194000    945.79471    66343.019    577.34874   -300.88273     879.4141    578.53137    1493.6302   -300.88273            0   -7.8936647            0            0            0            0            0            0 
10195000    978.27436    66859.526    586.21897   -303.07632    892.92518    589.84886    1543.7423   -303.07632            0   -7.8326841            0            0            0            0            0            0 
10196000    958.06876     64907.27    578.39317   -326.51524    881.00497    554.48973    1461.4033   -326.51524            0   -8.0682725            0            0            0            0            0            0 
10197000    860.92436    68023.162    576.35401   -305.11229    877.89893    572.78664     1426.865   -305.11229            0   -7.6986945            0            0            0            0            0            0 
10198000    899.91825    65675.512    598.68604   -331.60206    911.91495    580.31289    1442.2636   -331.60206            0   -7.9738936            0            0            0            0            0            0 
10199000    1008.7468    63291.132    594.82137   -333.56436     906.0283    572.46395    1503.5738   -333.56436            0   -8.2742958            0            0            0            0            0            0 
10200000    852.39526    68527.611    561.35813   -306.36683     855.0573    548.69047    1400.5785   -306.36683            0   -7.6420225            0            0            0            0            0            0 
10201000    933.15553     63635.23    557.10108   -336.27371    848.57299    512.29928    1378.3185   -336.27371            0   -8.2295537            0            0            0            0            0            0 
10202000    971.74845    66433.008    603.28641   -309.62454     918.9222    609.29766    1550.7832   -309.62454            0    -7.882972            0            0            0            0            0            0 
10203000    833.39721    67777.726    564.03474   -323.17114     859.1343    535.96317    1359.7501   -323.17114            0    -7.726573            0            0            0            0            0            0 
10204000    900.27506    62874.961    552.67525   -345.62829    841.83159     496.2033    1321.7257   -345.62829            0   -8.3290635            0            0            0            0            0            0 
10205000    753.60608    66718.421     582.1969   -345.86436    886.79879    540.93442     1274.208   -345.86436            0   -7.8492497            0            0            0            0            0            0 
10206000    857.03833    67407.547    572.09049    -316.2664    871.40476    555.13836     1397.667    -316.2664            0   -7.7690047            0            0            0            0            0            0 
10207000    862.72463    65726.752    591.10122   -329.89318    900.36179    570.46861    1397.4396   -329.89318            0   -7.9676772            0            0            0            0            0            0 
10208000    936.14587    64760.129    594.78393   -331.87898    905.97127    574.09229    1458.2447   -331.87898            0   -8.0866044            0            0            0            0            0            0 
10209000    894.44821    67865.195    552.18672   -300.91882    841.08746    540.16864    1425.4436   -300.91882            0   -7.7166145            0            0            0            0            0            0 
10210000    808.38738    66434.102    588.54884   -335.33513    896.47402    561.13889    1344.3638   -335.33513            0   -7.8828423            0            0            0            0            0            0 
10211000    983.76344    63375.019    603.67581   -338.70863    919.51534     580.8067    1490.0595   -338.70863            0   -8.2633434            0            0            0            0            0            0 
10212000    785.13073    67874.234    549.52924   -317.59699     837.0396    519.44262    1296.6247   -317.59699            0   -7.7155869            0            0            0            0            0            0 
10213000    796.80139    63646.863    572.88775   -352.22261    872.61915    520.39653    1260.0069   -352.22261            0   -8.2280496            0            0            0            0            0            0 
10214000    909.66966    65894.811    606.23091   -318.67863    923.40725    604.72862    1478.9286   -318.67863            0   -7.9473564            0            0            0            0            0            0 
10215000    951.50069     65381.84    591.91137   -322.97993    901.59581    578.61588    1485.8975   -322.97993            0   -8.0097095            0            0            0            0            0            0 
10216000    832.88315    67286.478    580.31569   -317.61132    883.93333    566.32201    1383.6338   -317.61132            0   -7.7829835            0            0            0            0            0            0 
10217000    979.55749    60604.045    595.05385   -357.23526    906.38241    549.14715    1414.9269   -357.23526            0   -8.6411648            0            0            0            0            0            0 
10218000    852.67729    66035.511      560.143   -337.67199    853.20643    515.53443     1336.714   -337.67199            0   -7.9304232            0            0            0            0            0            0 
10219000    799.13513    67297.769    563.92932    -323.4609    858.97372    535.51281    1319.8391    -323.4609            0   -7.7816776            0            0            0            0            0            0 
10220000    907.78424    64205.937    564.38081   -329.73817    859.66143    529.92326    1379.9522   -329.73817            0   -8.1564037            0            0            0            0            0            0 
10221000    1029.0747    64179.514    566.80323   -313.19218    863.35125    550.15907    1513.3652   -313.19218            0   -8.1597618            0            0            0            0            0            0 
10222000    796.30313    72520.418    588.20213   -294.05362    895.94592    601.89229    1444.0911   -294.05362            0   -7.2212703            0            0            0            0            0            0 
10223000    892.23955    64360.274    562.25869   -337.24721    856.42903    519.18183    1356.6634   -337.24721            0   -8.1368445            0            0            0            0            0            0 
10224000    779.21165    69237.878    556.29872   -302.12163    847.35084    545.22921    1332.0486   -302.12163            0   -7.5636279            0            0            0            0            0            0 
10225000    932.77162    65251.105    524.54272    -315.9213    798.98029    483.05899    1370.7035    -315.9213            0   -8.0257574            0            0            0            0            0            0 
10226000    901.09459    66442.626     605.1169    -328.0066    921.71039    593.70379    1466.8622    -328.0066            0   -7.8818309            0            0            0            0            0            0 
10227000     1044.421    66683.781    593.19476   -299.29796    903.55067    604.25271    1619.9673   -299.29796            0   -7.8533271            0            0            0            0            0            0 
10228000    948.35077    67174.274    578.06197   -302.09978    880.50049    578.40071    1507.4695   -302.09978            0   -7.7959837            0            0            0            0            0            0 
10229000     1009.787    64290.662    595.33243   -316.19563    906.80675    590.61113    1537.4009   -316.19563            0   -8.1456549            0            0            0            0            0            0 
10230000    903.28167    65701.363    564.21218   -317.84845    859.40456    541.55611    1407.0689   -317.84845            0   -7.9707562            0            0            0            0            0            0 
10231000    932.34028    67431.055    578.19298   -299.59019    880.70004    581.10985    1497.9852   -299.59019            0   -7.7662962            0            0            0            0            0            0 
10232000    1008.6434    64136.632    585.27852   -326.84287    891.49269    564.64982    1508.1016   -326.84287            0   -8.1652175            0            0            0            0            0            0 
10233000    857.06834    65023.202    544.03468   -326.28083    828.67032    502.38949    1315.1446   -326.28083            0   -8.0538873            0            0            0            0            0            0 
10234000     842.9573    69116.002    613.47912   -306.80767    934.44768       627.64    1477.3292   -306.80767            0   -7.5769652            0            0            0            0            0            0 
10235000     1057.736    67179.498    608.36279    -289.8539    926.65451     636.8006    1673.1112    -289.8539            0   -7.7953775            0            0            0            0            0            0 
10236000    820.70548    63569.452    549.12162   -350.34589    836.41872    486.07283     1246.945   -350.34589            0   -8.2380692            0            0            0            0            0            0 
10237000    690.51851    69596.326    568.46148   -332.41844    865.87709    533.45865    1234.3287   -332.41844            0   -7.5246723            0            0            0            0            0            0 
10238000    866.78345    64559.102    570.04127   -342.06116     868.2834    526.22224    1342.3234   -342.06116            0   -8.1117849            0            0            0            0            0            0 
10239000    903.47568    66392.595    566.49167   -326.55069    862.87667    536.32599    1411.1325   -326.55069            0   -7.8877704            0            0            0            0            0            0 
10240000    966.27961    66098.743      598.878   -309.57946    912.20733    602.62787    1534.1044   -309.57946            0   -7.9228366            0            0            0            0            0            0 
10241000    1125.0163    64008.214    591.76466   -304.93163    901.37234    596.44071    1646.6369   -304.93163            0   -8.1815991            0            0            0            0            0            0 
10242000    846.55819    70186.304    586.49534   -303.55095    893.34614    589.79519    1456.3281   -303.55095            0   -7.4614208            0            0            0            0            0            0 
10243000    880.22798    63542.133     596.3977   -340.82042    908.42937    567.60895    1383.3134   -340.82042            0    -8.241611            0            0            0            0            0            0 
10244000    953.01969    64865.933    567.36631   -317.25614    864.20892    546.95278    1448.5124   -317.25614            0   -8.0734142            0            0            0            0            0            0 
10245000    841.17434     67280.58    568.95404   -326.26906    866.62734    540.35829    1365.7339   -326.26906            0   -7.7836658            0            0            0            0            0            0 
10246000    952.08245    68005.071    563.91079   -287.75127    858.94549    571.19422    1515.4546   -287.75127            0   -7.7007426            0            0            0            0            0            0 
10247000    915.71243    62548.033    578.37974   -353.23883    880.98451    527.74569    1363.0576   -353.23883            0   -8.3725982            0            0            0            0            0            0 
10248000    859.36834    68054.274    586.64707   -319.56373    893.57726    574.01353    1426.9381   -319.56373            0    -7.695175            0            0            0            0            0            0 
10249000    872.26804    67346.382    557.54365   -313.61994    849.24711    535.62717    1392.3496   -313.61994            0   -7.7760606            0            0            0            0            0            0 
10250000    953.62611    65424.468    576.14347   -321.42416    877.57824    556.15409    1466.0553   -321.42416            0   -8.0044907            0            0            0            0            0            0 
10251000    993.88791    66309.607    589.57416   -307.49763    898.03578    590.53815     1551.685   -307.49763            0   -7.8976422            0            0            0            0            0            0 
10252000    776.39931    67325.782     568.6022   -333.46269    866.09143    532.62874    1294.9577   -333.46269            0   -7.7784398            0            0            0            0            0            0 
10253000    863.85822    63324.164    569.41178   -341.10593    867.32457    526.21864    1324.0072   -341.10593            0   -8.2699796            0            0            0            0            0            0 
10254000    861.84718    66408.607    594.24984   -326.47814    905.15776    578.67962    1413.3798   -326.47814            0   -7.8858686            0            0            0            0            0            0 
10255000    870.47543    63131.429    573.56127   -350.39622    873.64505    523.24883    1324.7018   -350.39622            0   -8.2952272            0            0            0            0            0            0 
10256000    875.08399    65167.439    585.34771   -326.40935    891.59809    565.18874    1396.8688   -326.40935            0   -8.0360614            0            0            0            0            0            0 
10257000    1042.8536    65994.394    597.12799    -301.3645    909.54173    608.17722    1611.8827    -301.3645            0   -7.9353641            0            0            0            0            0            0 
10258000    977.06357    64357.683     621.4064   -329.79645    946.52246    616.72601    1533.7889   -329.79645            0   -8.1371721            0            0            0            0            0            0 
10259000    906.60033    65777.485    583.05225   -321.76463    888.10165    566.33702    1436.0361   -321.76463            0   -7.9615319            0            0            0            0            0            0 
10260000    1027.5094    63702.685    581.06487   -324.69706    885.07449    560.37743    1514.9731   -324.69706            0   -8.2208394            0            0            0            0            0            0 
10261000    842.51046    66454.516    554.97896   -316.62093    845.34059    528.71966    1345.2563   -316.62093            0   -7.8804207            0            0            0            0            0            0 
10262000    789.26908    66680.102    557.81071   -322.23023     849.6539    527.42367     1294.957   -322.23023            0   -7.8537604            0            0            0            0            0            0 
10263000    1034.9942    63162.108    564.86775   -323.28015    860.40313    537.12298    1490.5126   -323.28015            0    -8.291198            0            0            0            0            0            0 
10264000    1004.2462    68665.641    598.63239   -292.32068    911.83323    619.51255    1625.1827   -292.32068            0   -7.6266606            0            0            0            0            0            0 
10265000    923.67932    64611.143    603.18945   -332.16904    918.77451    586.60547    1456.9767   -332.16904            0   -8.1052512            0            0            0            0            0            0 
10266000     820.5545    68432.422    576.53715     -318.785    878.17788    559.39288      1378.32     -318.785            0   -7.6526525            0            0            0            0            0            0 
10267000    836.34921    67444.754    568.66321   -331.46905    866.18435     534.7153    1357.3589   -331.46905            0   -7.7647187            0            0            0            0            0            0 
10268000    905.14531      64925.7     574.9381   -327.98691    875.74222    547.75531    1404.8145   -327.98691            0   -8.0659822            0            0            0            0            0            0 
10269000    996.82398    67375.827    588.65191   -292.66557    896.63102    603.96545     1583.452   -292.66557            0   -7.7726622            0            0            0            0            0            0 
10270000    1092.0032    64231.675    608.42295   -305.70915    926.74615      621.037    1643.9743   -305.70915            0   -8.1531354            0            0            0            0            0            0 
10271000    697.82719    70530.202    563.48164   -317.31776    858.29181    540.97405    1258.7665   -317.31776            0   -7.4250396            0            0            0            0            0            0 
10272000    991.04382    66226.816    616.51241   -310.95256    939.06797    628.11541    1585.3153   -310.95256            0   -7.9075151            0            0            0            0            0            0 
10273000    971.02566    63618.209    565.75654   -328.91959    861.75693    532.83734    1433.7611   -328.91959            0   -8.2317556            0            0            0            0            0            0 
10274000     843.1187    67252.836    618.79047   -324.69311    942.53789    617.84477    1444.7871   -324.69311            0   -7.7868768            0            0            0            0            0            0 
10275000    1046.9847    64248.209    588.21857   -316.48443    895.97096    579.48653    1560.5052   -316.48443            0   -8.1510372            0            0            0            0            0            0 
10276000    883.22573    64815.065    591.09208   -332.25622    900.34787    568.09166    1402.9707   -332.25622            0   -8.0797504            0            0            0            0            0            0 
10277000    822.78054    67068.361    557.32023     -326.043    848.90679    522.86379    1327.6446     -326.043            0    -7.808295            0            0            0            0            0            0 
10278000    912.07866    65405.464    566.19379   -326.79848    862.42295    535.62447    1405.6304   -326.79848            0   -8.0068164            0            0            0            0            0            0 
10279000       809.18    67540.705    574.28555   -331.21347    874.74827    543.53481    1340.5867   -331.21347            0   -7.7536878            0            0            0            0            0            0 
10280000    865.32798    65168.474    553.02655   -335.12088    842.36668     507.2458    1329.6668   -335.12088            0   -8.0359338            0            0            0            0            0            0 
10281000    805.68098     64171.22    537.06681    -351.2693    818.05691    466.78761    1220.8014    -351.2693            0   -8.1608165            0            0            0            0            0            0 
10282000    812.59692    69319.939    626.28522   -320.59061    953.95385    633.36324    1454.8664   -320.59061            0   -7.5546741            0            0            0            0            0            0 
10283000    937.11155    65835.998    641.22754   -330.77168     976.7139    645.94222    1545.7103   -330.77168            0   -7.9544559            0            0            0            0            0            0 
10284000    939.68497    65922.453    578.13611   -319.34248    880.61342    561.27095    1464.6947   -319.34248            0   -7.9440239            0            0            0            0            0            0 
10285000    997.06803    65275.308    557.04447   -308.01846    848.48676     540.4683    1489.6505   -308.01846            0   -8.0227817            0            0            0            0            0            0 
10286000    707.22284    68743.849    587.81917   -335.50536    895.36259    559.85723    1268.8895   -335.50536            0    -7.617984            0            0            0            0            0            0 
10287000    856.42887    68745.964    589.85407   -314.29771    898.46214    584.16443    1442.8109   -314.29771            0   -7.6177497            0            0            0            0            0            0 
10288000    1024.9814     64589.66    586.04848    -314.1124    892.66549    578.55309    1544.0588    -314.1124            0   -8.1079471            0            0            0            0            0            0 
10289000    808.06739     66907.82    593.66206   -331.75944    904.26245    572.50301    1361.0006   -331.75944            0   -7.8270305            0            0            0            0            0            0 
10290000    936.07812    63804.273    540.98242   -325.10843    824.02114    498.91272     1369.952   -325.10843            0   -8.2077504            0            0            0            0            0            0 
10291000      898.317    66256.056    550.92688   -310.00946    839.16849    529.15902    1397.1817   -310.00946            0   -7.9040253            0            0            0            0            0            0 
10292000     921.0164    66379.502    584.30811   -318.32084    890.01457    571.69373    1463.3085   -318.32084            0   -7.8893262            0            0            0            0            0            0 
10293000    1036.8778    64721.071    602.59007   -317.24989    917.86154    600.61165    1579.3107   -317.24989            0   -8.0914845            0            0            0            0            0            0 
10294000    799.41308    72569.791    557.61927   -285.53144    849.36229    563.83085    1409.8944   -285.53144            0   -7.2163574            0            0            0            0            0            0 
10295000    889.72145    64764.898    600.80139   -337.54104    915.13703    577.59599    1417.9642   -337.54104            0    -8.086009            0            0            0            0            0            0 
10296000    830.37894    65574.252    586.81618   -340.80029    893.83484    553.03456    1347.1535   -340.80029            0    -7.986207            0            0            0            0            0            0 
10297000    801.03694    66672.095     555.6598   -325.68133    846.37764    520.69631    1299.5799   -325.68133            0   -7.8547036            0            0            0            0            0            0 
10298000    828.64099    64429.793    548.40814   -337.99114    835.33196    497.34082    1275.9671   -337.99114            0    -8.128065            0            0            0            0            0            0 
10299000    858.58534    65691.588     603.5242   -335.20267     919.2844    584.08173    1406.6446   -335.20267            0   -7.9719422            0            0            0            0            0            0 
10300000    1022.0232    65365.995    576.95667    -311.7948     878.8169     567.0221    1541.3128    -311.7948            0   -8.0116511            0            0            0            0            0            0 
10301000     769.0947    66763.497    556.13596   -331.31743    847.10293    515.78549    1264.6354   -331.31743            0   -7.8439502            0            0            0            0            0            0 
10302000    728.63569    67937.212    557.37829   -332.84757    848.99522    516.14765    1238.0759   -332.84757            0   -7.7084344            0            0            0            0            0            0 
10303000    913.75041    64120.475    603.45082   -335.31023    919.17263    583.86239     1438.339   -335.31023            0   -8.1672749            0            0            0            0            0            0 
10304000    841.59375    64478.637    588.18834   -347.02729    895.92491    548.89762    1340.2943   -347.02729            0   -8.1219078            0            0            0            0            0            0 
10305000    829.72597     66603.38    544.50826   -329.22519    829.39169    500.16649    1306.1142   -329.22519            0   -7.8628073            0            0            0            0            0            0 
10306000     923.9476    66438.292    634.20829   -331.24804    966.02222    634.77418    1530.0187   -331.24804            0   -7.8823451            0            0            0            0            0            0 
10307000     894.5271    65472.658    599.58122   -331.18752    913.27847    582.09095    1436.2315   -331.18752            0   -7.9985991            0            0            0            0            0            0 
10308000    941.15028     64548.23    595.61376   -332.37884    907.23526    574.85642    1460.8268   -332.37884            0   -8.1131512            0            0            0            0            0            0 
10309000    839.83653    66423.939    543.57396   -321.33394    827.96856    506.63462    1320.2053   -321.33394            0   -7.8840483            0            0            0            0            0            0 
10310000    860.72412    70006.708    573.36311   -296.98105    873.34321    576.36216    1455.1409   -296.98105            0   -7.4805624            0            0            0            0            0            0 
10311000    967.38663    63768.342    570.64925    -330.1173    869.20947    539.09217    1438.7577    -330.1173            0   -8.2123751            0            0            0            0            0            0 
10312000    776.85977    68057.126    609.13326   -321.48457    927.82809    606.34352    1377.4105   -321.48457            0   -7.6948525            0            0            0            0            0            0 
10313000    807.15531     67091.88    592.95734   -338.87122    903.18902     564.3178     1354.092   -338.87122            0   -7.8055578            0            0            0            0            0            0 
10314000    918.12283    64413.022    578.77055    -338.8577    881.57979    542.72209    1405.2047    -338.8577            0   -8.1301812            0            0            0            0            0            0 
10315000    814.57509     67366.86    595.20347   -326.14939    906.61031    580.46092    1380.7618   -326.14939            0   -7.7736968            0            0            0            0            0            0 
10316000    973.63114    67801.716    561.67621   -290.49564    855.54179    565.04616    1527.7906   -290.49564            0   -7.7238391            0            0            0            0            0            0 
10317000    994.80299     62102.04    608.24366   -345.96662    926.47305    580.50642    1481.4941   -345.96662            0   -8.4327269            0            0            0            0            0            0 
10318000    702.56967    67543.573    551.16979   -335.27776    839.53848    504.26072    1196.3296   -335.27776            0   -7.7533586            0            0            0            0            0            0 
10319000    985.18889    64928.493    608.36442   -323.03733    926.65699    603.61966    1536.5103   -323.03733            0   -8.0656353            0            0            0            0            0            0 
10320000    906.40732    66884.625    574.54304   -319.40416    875.14048    555.73632    1439.8856   -319.40416            0   -7.8297448            0            0            0            0            0            0 
10321000    757.96699    66756.415     566.2499   -342.56453    862.50842    519.94389    1257.8807   -342.56453            0   -7.8447823            0            0            0            0            0            0 
10322000    862.29947    64985.152    605.94645   -339.14088    922.97396    583.83308    1401.0703   -339.14088            0   -8.0586031            0            0            0            0            0            0 
10323000    834.79016    68476.398    564.37983   -302.69097    859.65993    556.96896    1390.6389   -302.69097            0   -7.6477379            0            0            0            0            0            0 
10324000     1012.542    65727.214    578.64689   -301.69282    881.39143    579.69861    1550.2849   -301.69282            0   -7.9676212            0            0            0            0            0            0 
10325000    870.40354    67211.527    581.78934   -314.81921      886.178    571.35878    1424.5381   -314.81921            0   -7.7916626            0            0            0            0            0            0 
10326000     876.5525    67115.032    577.51737    -318.3417    879.67095    561.32925    1419.3023    -318.3417            0   -7.8028651            0            0            0            0            0            0 
10327000    819.33878    65435.189    577.09579   -340.60824     879.0288    538.42057    1320.3198   -340.60824            0   -8.0031792            0            0            0            0            0            0 
10328000    924.57025    65419.053    599.79119   -332.27497     913.5983    581.32333    1463.4279   -332.27497            0   -8.0051532            0            0            0            0            0            0 
10329000    984.39806     63300.97    592.29275   -338.56271    902.17672    563.61402    1472.3903   -338.56271            0   -8.2730098            0            0            0            0            0            0 
10330000    825.22435    65750.889    582.91721   -336.35962    887.89595    551.53633    1342.8516   -336.35962            0   -7.9647523            0            0            0            0            0            0 
10331000    852.93234    66466.837    558.35117   -322.74412    850.47712      527.733    1354.5235   -322.74412            0   -7.8789599            0            0            0            0            0            0 
10332000    875.12261    67715.074    607.64906   -310.69999    925.56736    614.86737     1479.099   -310.69999            0   -7.7337219            0            0            0            0            0            0 
10333000    895.56939    63982.393    544.72237   -340.50664    829.71782    489.21117    1324.8827   -340.50664            0   -8.1849008            0            0            0            0            0            0 
10334000    792.29222    69074.246    559.57332   -307.86288    852.33868     544.4758    1342.6128   -307.86288            0   -7.5815456            0            0            0            0            0            0 
10335000    904.77654    64444.777    537.09947   -325.93473    818.10665    492.17192    1342.5361   -325.93473            0   -8.1261752            0            0            0            0            0            0 
10336000    931.66704    65618.257    587.92551    -323.2913    895.52457    572.23326    1463.8153    -323.2913            0   -7.9808512            0            0            0            0            0            0 
10337000    1018.8239     66673.34    608.35165   -304.92297    926.63755    621.71458    1612.3805   -304.92297            0   -7.8545569            0            0            0            0            0            0 
10338000    898.08735    65878.827    571.73715   -319.55907    870.86656     551.3075    1414.1675   -319.55907            0   -7.9492847            0            0            0            0            0            0 
10339000    709.41214      64601.4    545.08576   -355.65756    830.27132    474.61376     1142.983   -355.65756            0   -8.1064736            0            0            0            0            0            0 
10340000    778.59093     64251.86    544.83714    -353.1742    829.89263    476.71843    1206.2951    -353.1742            0   -8.1505741            0            0            0            0            0            0 
10341000    852.45537    66933.043    596.28597   -328.94221    908.25917    579.31696    1411.4411   -328.94221            0   -7.8240809            0            0            0            0            0            0 
10342000    923.12257    65727.426    596.40521   -325.93931    908.44081    582.50149    1467.3764   -325.93931            0   -7.9675956            0            0            0            0            0            0 
10343000    1005.0007    63838.752    636.01402   -330.85418    968.77269    637.91851     1573.597   -330.85418            0   -8.2033174            0            0            0            0            0            0 
10344000    838.90955    65756.444    599.53756   -334.40858    913.21197    578.80339    1383.3095   -334.40858            0   -7.9640794            0            0            0            0            0            0 
10345000    1000.5702    64408.383    579.07761   -322.74905    882.04751    559.29845    1499.1642   -322.74905            0   -8.1307669            0            0            0            0            0            0 
10346000    822.17121    65334.658     570.0727   -341.85192    868.33128    526.47937    1309.8761   -341.85192            0   -8.0154937            0            0            0            0            0            0 
10347000    977.92316    64453.892     568.6772   -321.74545    866.20566    544.46021     1463.702   -321.74545            0   -8.1250259            0            0            0            0            0            0 
10348000    813.69951    68722.284    563.80293   -310.20588     858.7812    548.57532    1364.1008   -310.20588            0   -7.6203746            0            0            0            0            0            0 
10349000    905.40398    64050.196    537.97265   -333.22839    819.43667    486.20828    1331.9519   -333.22839            0   -8.1762364            0            0            0            0            0            0 
10350000    831.78787     68074.12     586.6743   -316.64883    893.61873    576.96991    1402.7616   -316.64883            0   -7.6929315            0            0            0            0            0            0 
10351000    894.80143    66538.416    592.60404   -327.69619    902.65087    574.95468    1443.2651   -327.69619            0   -7.8704841            0            0            0            0            0            0 
10352000    1110.8556    64044.551    580.53404   -311.76182    884.26594    572.50412      1610.07   -311.76182            0   -8.1769571            0            0            0            0            0            0 
10353000    870.82989    67280.379    579.70306   -314.58263    883.00018    568.41755    1422.8892   -314.58263            0   -7.7836889            0            0            0            0            0            0 
[...]
14939000     884.0171    68686.222    593.71739   -307.99949    904.34673    596.34724    1481.8832   -307.99949            0   -7.6243755            0            0            0            0            0            0 
14940000     843.8887    64846.786    582.96562   -343.06606    887.96969    544.90363    1342.9893   -343.06606            0    -8.075798            0            0            0            0            0            0 
14941000    1047.7892    64156.736    613.98816   -319.57722    935.22305    615.64583    1596.0205   -319.57722            0   -8.1626587            0            0            0            0            0            0 
14942000    886.39169    68296.208    612.42165   -316.65391    932.83694    616.18303    1499.0559   -316.65391            0   -7.6679154            0            0            0            0            0            0 
14943000    960.30713    67321.884    592.53718   -293.78397    902.54903    608.76506    1551.6144   -293.78397            0   -7.7788902            0            0            0            0            0            0 
14944000    1003.5225    65661.173    588.37777   -303.98208    896.21345    592.23137    1553.2053   -303.98208            0    -7.975635            0            0            0            0            0            0 
14945000    933.73664    68591.964    646.38363   -300.20351    984.56762     684.3641    1618.4214   -300.20351            0   -7.6348527            0            0            0            0            0            0 
14946000    1005.2289    64219.474    575.50401   -324.16245    876.60422    552.44177    1493.9142   -324.16245            0   -8.1546844            0            0            0            0            0            0 
14947000    880.36157    66842.068    563.54658   -306.48959    858.39074    551.90115    1410.0979   -306.48959            0   -7.8347298            0            0            0            0            0            0 
14948000    1011.9974    66408.724    574.01973   -302.95321    874.34337    571.39016    1551.5128   -302.95321            0   -7.8858546            0            0            0            0            0            0 
14949000    938.33543     65554.46    620.01556   -331.26219    944.40393    613.14174    1510.2322   -331.26219            0   -7.9886181            0            0            0            0            0            0 
14950000    819.32104    65448.681    620.72375    -339.6732    945.48265    605.80945    1387.8529    -339.6732            0   -8.0015294            0            0            0            0            0            0 
14951000    877.50181    65164.304    523.13764   -315.93545    796.84008    480.90463    1314.8424   -315.93545            0   -8.0364481            0            0            0            0            0            0 
14952000    753.48184    68498.201    585.60652   -323.19668    891.99231    568.79562    1321.5059   -323.19668            0   -7.6453037            0            0            0            0            0            0 
14953000    969.39525    63768.758    573.04922   -329.47324    872.86509    543.39186    1444.9313   -329.47324            0   -8.2123216            0            0            0            0            0            0 
14954000     1009.504    66465.926    560.13589   -298.25015     853.1956    554.94545    1533.4954   -298.25015            0   -7.8790679            0            0            0            0            0            0 
14955000    895.42636    66716.676     576.3729   -319.94503    877.92771    557.98268    1429.2274   -319.94503            0    -7.849455            0            0            0            0            0            0 
14956000     931.8627    65717.994    580.76298   -332.05626    884.61465    552.55839    1445.6831   -332.05626            0    -7.968739            0            0            0            0            0            0 
14957000    907.40095      67682.2    594.63567     -309.621    905.74545    596.12445    1491.7977     -309.621            0   -7.7374782            0            0            0            0            0            0 
14958000    949.71054      63063.4    616.50478   -347.92778    939.05634    591.12856    1464.5916   -347.92778            0   -8.3041756            0            0            0            0            0            0 
14959000    834.99111    67241.992    608.82147   -330.23813    927.35318    597.11505    1415.9537   -330.23813            0   -7.7881325            0            0            0            0            0            0 
14960000    890.78381    63805.194    568.70635   -346.94615    866.25007    519.30392    1348.2079   -346.94615            0   -8.2076319            0            0            0            0            0            0 
14961000    693.68855    67587.621    567.17788   -342.46584     863.9219    521.45607    1205.2222   -342.46584            0   -7.7483056            0            0            0            0            0            0 
14962000    899.83527    66033.389    577.82728   -315.81459    880.14301    564.32842    1430.8961   -315.81459            0    -7.930678            0            0            0            0            0            0 
14963000    829.58242    65556.322    544.59668   -327.16428    829.52636    502.36207    1295.5024   -327.16428            0   -7.9883912            0            0            0            0            0            0 
14964000    906.53644    64888.068    568.31898   -333.38996    865.66003    532.27007     1390.149   -333.38996            0   -8.0706602            0            0            0            0            0            0 
14965000    823.96876    66676.665    590.42949   -329.35532    899.33863     569.9833    1371.2194   -329.35532            0   -7.8541652            0            0            0            0            0            0 
14966000    845.80473    64150.448    593.94111   -348.57475    904.68749    556.11274     1347.421   -348.57475            0   -8.1634589            0            0            0            0            0            0 
14967000    847.37744    67217.347    577.18898   -324.86938    879.17075    554.30138    1384.9821   -324.86938            0   -7.7909881            0            0            0            0            0            0 
14968000     820.4681    66825.544    602.36786   -331.62977    917.52308    585.89331    1385.5068   -331.62977            0   -7.8366672            0            0            0            0            0            0 
14969000     1053.689    64952.724    598.54581   -308.64525    911.70135     603.0561    1601.1828   -308.64525            0   -8.0626263            0            0            0            0            0            0 
14970000    925.90691    63870.588    585.12225   -334.87848    891.25466    556.37619    1418.8464   -334.87848            0   -8.1992285            0            0            0            0            0            0 
14971000     904.2406    66916.378    579.34575     -315.432    882.45594    567.02394    1449.4784     -315.432            0   -7.8260294            0            0            0            0            0            0 
14972000     856.4061    67099.185    586.13877   -322.76322    892.80301     570.0398    1408.0955   -322.76322            0   -7.8047079            0            0            0            0            0            0 
14973000    775.04635    66656.172    608.39927   -332.61356    926.71008    594.09652    1347.5283   -332.61356            0     -7.85658            0            0            0            0            0            0 
14974000     984.2975    63939.781     531.2561   -319.48503    809.20607    489.72104    1407.5746   -319.48503            0   -8.1903556            0            0            0            0            0            0 
14975000    889.10841    67009.691    582.65955   -317.55935    887.50349    569.94414     1438.841   -317.55935            0   -7.8151314            0            0            0            0            0            0 
14976000    819.15347    68095.817    578.22424   -327.24479    880.74766    553.50287    1367.0104   -327.24479            0   -7.6904804            0            0            0            0            0            0 
14977000    1012.6362    63958.827     560.9843   -320.68627    854.48789    533.80162    1478.3622   -320.68627            0   -8.1879167            0            0            0            0            0            0 
14978000    865.55804    65806.133    568.73408   -324.73961    866.29231     541.5527    1372.2417   -324.73961            0    -7.958066            0            0            0            0            0            0 
14979000    936.77977    68793.943    582.03794     -294.458    886.55666    592.09866    1531.9596     -294.458            0   -7.6124368            0            0            0            0            0            0 
14980000    929.92673    66605.381    601.69241   -314.11888    916.49422    602.37535    1505.6794   -314.11888            0   -7.8625712            0            0            0            0            0            0 
14981000    1103.4026    63923.493    585.47623   -305.72983    891.79384    586.06401    1614.7206   -305.72983            0   -8.1924426            0            0            0            0            0            0 
14982000    864.93165    69031.044    591.25382   -298.57591    900.59423    602.01832    1472.7857   -298.57591            0   -7.5862903            0            0            0            0            0            0 
14983000     1042.422     65403.84     618.6624   -306.59766    942.34281    635.74515    1630.0572   -306.59766            0   -8.0070153            0            0            0            0            0            0 
14984000    951.08819    64983.255     565.0538   -326.30564    860.68653    534.38089    1435.7406   -326.30564            0   -8.0588383            0            0            0            0            0            0 
14985000    925.46051    69770.282    575.17502   -289.98199     876.1031    586.12112    1527.8031   -289.98199            0   -7.5059113            0            0            0            0            0            0 
14986000    1128.6192    62095.082    593.93638   -326.30662     904.6803    578.37368    1600.4434   -326.30662            0   -8.4336719            0            0            0            0            0            0 
14987000    874.10288     67897.57    560.08497   -307.98777    853.11803    545.13027    1410.6813   -307.98777            0   -7.7129351            0            0            0            0            0            0 
14988000    1055.8398    63482.411    571.35368   -320.06736    870.28246     550.2151    1527.7389   -320.06736            0   -8.2493644            0            0            0            0            0            0 
14989000    837.48512    67019.997    603.47211   -320.85063    919.20505    598.35442    1416.9274   -320.85063            0   -7.8139298            0            0            0            0            0            0 
14990000    798.47614     66233.29    557.63673   -323.96828    849.38889    525.42061    1296.7043   -323.96828            0   -7.9067421            0            0            0            0            0            0 
14991000    920.47273    66954.506     572.6841   -312.88355    872.30895     559.4254    1458.2328   -312.88355            0   -7.8215728            0            0            0            0            0            0 
14992000    944.23072    64407.933    584.04191      -334.25    889.60909    555.35909    1442.2973      -334.25            0   -8.1308236            0            0            0            0            0            0 
14993000    809.42265    66171.542    563.31341   -332.08083    858.03557    525.95474    1307.0833   -332.08083            0   -7.9141203            0            0            0            0            0            0 
14994000    860.29024    64951.309    569.81886   -339.65574    867.94463    528.28889    1343.1973   -339.65574            0    -8.062802            0            0            0            0            0            0 
14995000    1025.9756    62884.404    556.73767   -317.66625    848.01944    530.35319    1471.2801   -317.66625            0   -8.3278129            0            0            0            0            0            0 
14996000    775.36186    68151.788    594.33076   -325.55875      905.281    579.72225     1350.373   -325.55875            0   -7.6841644            0            0            0            0            0            0 
14997000    842.16875    68539.469    540.31026   -302.60806    822.99731    520.38925    1362.2025   -302.60806            0   -7.6407003            0            0            0            0            0            0 
14998000    972.62126    62439.633    564.25311   -339.48174    859.46692    519.98518    1405.6716   -339.48174            0   -8.3871336            0            0            0            0            0            0 
14999000    963.09058    65056.102    615.49474   -325.50099    937.51785    612.01685    1525.7746   -325.50099            0   -8.0498144            0            0            0            0            0            0 
15000000    876.50668     67192.71    607.19112   -318.67236    924.86983    606.19747    1465.1186   -318.67236            0   -7.7938446            0            0            0            0            0            0 
Loop time of 1337.2 on 8 procs for 5000000 steps with 512 atoms

Pair  time (%) = 712.251 (53.2642)
Bond  time (%) = 0.442374 (0.033082)
Neigh time (%) = 37.4557 (2.80104)
Comm  time (%) = 425.735 (31.8377)
Outpt time (%) = 0.251619 (0.0188168)
Other time (%) = 161.069 (12.0452)

Nlocal:    64 ave 69 max 56 min
Histogram: 1 0 1 0 1 0 1 1 1 2
Nghost:    1154 ave 1182 max 1116 min
Histogram: 2 0 0 0 1 1 1 0 0 3
Neighs:    4932 ave 5616 max 4353 min
Histogram: 1 1 0 0 3 2 0 0 0 1

Total # of neighbors = 39456
Ave neighs/atom = 77.0625
Ave special neighs/atom = 0
Neighbor list builds = 110982
Dangerous builds = 0

Averages
Group Pressure(MPa) Volume(m3) Temperature(K) PE(J) KE(J) ET(J) ET^2(J) H(J) H^2(J^2) V^2(m6) V*H(m3*J) Hconf(J) Uext*Hconf(J^2) V*Hconf(m3*J) Uext(J)
Block1 90.270204374917042855 6.6019326992801355145e-26 580.66106991059939446 -2.2519424331767736861e-18 6.144954155544210747e-18 3.893011722367443609e-18 1.5218628982365050848e-35 9.8442865467729163438e-18 9.7355070088145014651e-35 4.3621040852934051368e-51 6.4978946535572406382e-43 3.6993323912287032858e-18 -8.2949863333260790317e-36 2.4411148452268422326e-43 -2.2519424331767736861e-18
Block2 89.616132389882267262 6.5989127144837339711e-26 579.94452840021381235 -2.2583258423128242768e-18 6.1373712212645874695e-18 3.8790453789517655038e-18 1.5107799899767887085e-35 9.7844719949361974724e-18 9.616172988630423218e-35 4.3580006063951173796e-51 6.4554908036234704877e-43 3.6471007736715992178e-18 -8.2022115370633900104e-36 2.4053743958345221071e-43 -2.2583258423128242768e-18
Block3 90.300153977265608773 6.6027631014124107074e-26 580.73337553052385829 -2.2514052566218763499e-18 6.1457193432632575219e-18 3.8943140866413869498e-18 1.522453524130828641e-35 9.8483012663332232744e-18 9.7383866853860146769e-35 4.3631598054694676412e-51 6.5015075006806843021e-43 3.702581923069962671e-18 -8.3012863292482144369e-36 2.4434705401606645213e-43 -2.2514052566218763499e-18
Block4 89.544992817377391248 6.5966267907486377428e-26 579.89958798446662058 -2.2615129967953816802e-18 6.1368956309266196165e-18 3.8753826341312248399e-18 1.5075941949793033914e-35 9.7747324097465960113e-18 9.5946686941699067901e-35 4.3551061963333524015e-51 6.4474903034307137169e-43 3.6378367788199702319e-18 -8.1910354501798660773e-36 2.3991279102629465168e-43 -2.2615129967953816802e-18
Block5 90.361575285840146421 6.5987260441859870111e-26 581.68619279393828947 -2.253165752778959986e-18 6.155802709801337525e-18 3.9026369570223825464e-18 1.5290686662181308533e-35 9.8573111242460208479e-18 9.7559691363198179523e-35 4.3577027800210879604e-51 6.5034090413338659747e-43 3.7015084144446887156e-18 -8.3080327846428430956e-36 2.4413253984163037355e-43 -2.253165752778959986e-18
Ave_blocks 90.018611769056491312 6.5997922700221803006e-26 580.5849509239484405 -2.2552704563371632728e-18 6.1441486121600013434e-18 3.8888781558228403817e-18 1.5183518547083112824e-35 9.8218206684069901737e-18 9.6881409026641306823e-35 4.3592146947024861039e-51 6.4811584605251950239e-43 3.6776720562469849785e-18 -8.2595104868920779958e-36 2.426082617980255743e-43 -2.2552704563371632728e-18
Stdev_blocks 0.3595812537443129342 2.2511326512533306386e-29 0.65121747333841806249 3.968626434821418366e-21 6.8916304645185943877e-21 1.0146456853664938769e-20 7.9631846142492541058e-38 3.4864703430953421104e-20 6.8242641193295331956e-37 2.9850337425810143529e-54 2.4419849924772766373e-45 2.8911230325876093523e-20 5.163365253010242598e-38 1.9575682781089190221e-45 3.968626434821418366e-21






Properties
Group rho(kg/m3) Cp(J/K) Cp_conf(J/K) Cp_id(J/K) Cp2(J/K) kT(1/Pa) aP(1/K) aP2(1/K) Cv(J/K) uJT(K/Pa) sos(m/s) Cv2(J/K) uJT2(K/Pa) sos2(m/s) CvNVT(J/K)
Block1 206.59456528036793088 9.5614027113115931964e-20 -1.6489694966097668355e-21 4.3657191839378707307e-20 4.2008222342768938966e-20 6.7121711061766741972e-09 -0.00040252716753923337189 -0.00037728716199685952484 9.4688644834474840929e-20 -8.5186399178908401307e-07 853.33763295886751621 4.1195251744813473491e-20 -1.9158767121243062785e-06 857.53650241380012176 1.355261248241054037e-20
Block2 206.68911304500142023 9.1703928961349281957e-20 -2.2578518687114223994e-21 4.3621051490914505071e-20 4.1363199622203081919e-20 6.5024019955229891801e-09 -0.00039058486148935410995 -0.00042932453915832987767 9.0806054048461914031e-20 -8.8258838728691583012e-07 866.84382758313427075 4.0278382705852500556e-20 -1.9925777568961036622e-06 874.12862555810875165 1.3094724324029807262e-20
Block3 206.56858273868192555 8.4795396483666213599e-20 -2.0479239827696481516e-21 4.3660838113542737369e-20 4.1612914130773090722e-20 6.6334221782213927562e-09 -0.00035535884683751483388 -0.00040872489530212167703 8.4065436374947496217e-20 -9.3936314363382838321e-07 857.97858405929741821 4.0647247896732275742e-20 -1.9633319040210928311e-06 864.36572617727063061 1.2639563564178587686e-20
Block4 206.76073685581911832 8.6431697969331430115e-20 -5.0995686212912688799e-22 4.3618784451656629251e-20 4.3108827589527502363e-20 6.7361343669520572075e-09 -0.00017496244460398966119 -0.0002015334087526457138 8.6257856393904414685e-20 -8.4065510691227538869e-07 848.19905730168375158 4.2878175138405302495e-20 -1.7090626925555467318e-06 849.62161479917006091 1.2352507306662675988e-20
Block5 206.69496004001450729 8.4149588138593969781e-20 -2.5204337567609140956e-21 4.3708876741086748522e-20 4.1188442984325831417e-20 6.3860013174225765134e-09 -0.00037647214070738550459 -0.00038882411419557342397 8.329769418285849273e-20 -9.5588966093783975226e-07 874.84288097872467915 4.0279731048699924307e-20 -1.9644306037928503e-06 880.16675561130318783 1.2867566738588069401e-20
Ave_blocks 206.66159159197695772 8.8538927733211365483e-20 -1.797027193396175674e-21 4.3653348527315861893e-20 4.1856321333919685466e-20 6.5940261928591378055e-09 -0.0003399810922354954963 -0.00036113882388110602178 8.7823137166929417274e-20 -8.9407205811198877935e-07 860.2403965763414817 4.1055757706900697725e-20 -1.9090559338779799184e-06 865.16384491193059603 1.2901394883173936141e-20
Stdev_blocks 0.07048948897886998799 4.4225560387771027696e-21 7.03860320720250187e-22 3.2839066249012700197e-23 6.8415252916178062844e-22 1.32192541156742297e-10 8.3990450671379840311e-05 8.1749444797108968344e-05 4.3146967911499087874e-21 4.6129089912312745086e-08 9.535152277040060298 9.7098644818162483438e-22 1.0298732884580148674e-07 11.007532743206734693 4.0802896683409645222e-22






