LAMMPS (28 Oct 2012)
Scanning data file ...
Reading data file ...
  orthogonal box = (0 0 0) to (100 100 100)
  2 by 2 by 2 MPI processor grid
  512 atoms
Finding 1-2 1-3 1-4 neighbors ...
  0 = max # of 1-2 neighbors
  0 = max # of 1-3 neighbors
  0 = max # of 1-4 neighbors
  1 = max # of special neighbors
WARNING: Resetting reneighboring criteria during minimization (min.cpp:173)
Setting up minimization ...
Memory usage per processor = 4.05499 Mbytes
Step Temp E_pair E_mol TotEng Press 
       0       600.15    1409.7233            0    2323.8682    454.30411 
     701       600.15   -217.27527            0    696.86958    41.559208 
Loop time of 0.0557474 on 8 procs for 701 steps with 512 atoms

Minimization stats:
  Stopping criterion = energy tolerance
  Energy initial, next-to-last, final = 
         1409.72334813     -217.256630745     -217.275265106
  Force two-norm initial, final = 5034.49 0.337455
  Force max component initial, final = 2457.89 0.147661
  Final line search alpha, max atom move = 0.254892 0.0376377
  Iterations, force evaluations = 701 710

Pair  time (%) = 0.00897232 (16.0946)
Bond  time (%) = 5.90682e-05 (0.105957)
Neigh time (%) = 0.00314578 (5.64292)
Comm  time (%) = 0.0226478 (40.6257)
Outpt time (%) = 0 (0)
Other time (%) = 0.0209225 (37.5308)

Nlocal:    64 ave 74 max 52 min
Histogram: 1 0 0 1 1 2 0 2 0 1
Nghost:    235.125 ave 266 max 224 min
Histogram: 4 0 2 0 0 1 0 0 0 1
Neighs:    316.25 ave 371 max 226 min
Histogram: 1 0 0 1 1 1 0 1 0 3

Total # of neighbors = 2530
Ave neighs/atom = 4.94141
Ave special neighs/atom = 0
Neighbor list builds = 60
Dangerous builds = 0
Setting up run ...
Memory usage per processor = 3.36354 Mbytes
Step Temp E_pair E_mol TotEng Press Volume 
     701       600.15   -217.27527            0    696.86958    41.559208      1000000 
 5000701    620.76632   -285.99081            0    659.55667    1114.4869    68071.627 
Loop time of 1342.13 on 8 procs for 5000000 steps with 512 atoms

Pair  time (%) = 691.475 (51.5207)
Bond  time (%) = 0.475303 (0.0354141)
Neigh time (%) = 37.6743 (2.80705)
Comm  time (%) = 452.486 (33.714)
Outpt time (%) = 4.30048e-05 (3.20422e-06)
Other time (%) = 160.019 (11.9227)

Nlocal:    64 ave 70 max 55 min
Histogram: 1 0 1 0 1 0 2 0 1 2
Nghost:    1132.12 ave 1183 max 1076 min
Histogram: 2 0 0 1 1 1 0 1 0 2
Neighs:    4862.75 ave 5739 max 4133 min
Histogram: 2 0 0 1 2 1 0 1 0 1

Total # of neighbors = 38902
Ave neighs/atom = 75.9805
Ave special neighs/atom = 0
Neighbor list builds = 113008
Dangerous builds = 12
Setting up run ...
Memory usage per processor = 3.96748 Mbytes
Step Press Volume Temp PotEng KinEng TotEng Enthalpy E_vdwl E_coul E_tail E_long E_bond E_angle E_dihed E_impro E_mol 
10000000    1114.4869    68071.627    620.76632   -285.99081    945.54749    659.55667     1765.969   -285.99081            0   -7.6932133            0            0            0            0            0            0 
10001000    900.28823     68106.84    585.22233   -299.65549    891.40711    591.75162    1485.9795   -299.65549            0   -7.6892357            0            0            0            0            0            0 
10002000    896.44281    65533.662    579.69462   -331.35478    882.98734    551.63256    1408.3999   -331.35478            0   -7.9911534            0            0            0            0            0            0 
10003000    930.21098    70533.798    625.66439   -293.92407    953.00821    659.08415    1615.9579   -293.92407            0    -7.424661            0            0            0            0            0            0 
10004000    982.40887    66374.468    598.97455   -307.08459     912.3544    605.26981    1556.2451   -307.08459            0   -7.8899245            0            0            0            0            0            0 
10005000    940.36611    67979.249    620.64132    -307.4701    945.35709    637.88699    1570.1731    -307.4701            0   -7.7036677            0            0            0            0            0            0 
10006000    888.17432    69376.355    568.77071   -297.82391     866.3481    568.52419    1467.1638   -297.82391            0   -7.5485307            0            0            0            0            0            0 
10007000    950.55012    66625.138    560.28727   -305.05754    853.42617    548.36863    1471.9795   -305.05754            0   -7.8602396            0            0            0            0            0            0 
10008000    820.49661    69795.996    573.85633   -312.42707    874.09448     561.6674    1396.8534   -312.42707            0   -7.5031459            0            0            0            0            0            0 
10009000     921.0888    68404.145    620.84758   -302.05768    945.67127    643.61359    1562.4957   -302.05768            0    -7.655816            0            0            0            0            0            0 
10010000    799.43698    68028.415     596.4673   -321.79674    908.53537    586.73863    1379.8798   -321.79674            0   -7.6981001            0            0            0            0            0            0 
10011000     808.8365    67484.062    556.20021   -312.98601    847.20079    534.21478    1330.2602   -312.98601            0    -7.760196            0            0            0            0            0            0 
10012000    870.32566    68381.757    603.28401   -313.42959    918.91855    605.48896    1473.4454   -313.42959            0   -7.6583224            0            0            0            0            0            0 
10013000     894.6132     70213.33    619.03235   -301.82709    942.90632    641.07923    1557.1537   -301.82709            0   -7.4585487            0            0            0            0            0            0 
10014000    915.99809    67080.574    615.58867   -314.98645    937.66093    622.67448    1518.7967   -314.98645            0   -7.8068734            0            0            0            0            0            0 
10015000    868.39794    69643.261    578.44882   -290.28506    881.08974    590.80468    1472.8152   -290.28506            0   -7.5196012            0            0            0            0            0            0 
10016000    865.17068    65725.456    608.38195   -329.75451     926.6837    596.92919    1426.2285   -329.75451            0   -7.9678344            0            0            0            0            0            0 
10017000    738.64742    73339.148    596.87538   -298.19639    909.15696    610.96056    1401.0003   -298.19639            0   -7.1406549            0            0            0            0            0            0 
10018000    803.79403     63752.93    607.79823   -360.57123    925.79458    565.22334    1312.5678   -360.57123            0   -8.2143605            0            0            0            0            0            0 
10019000     1003.264    69015.422    639.27097   -280.92758    973.73366    692.80608    1702.6105   -280.92758            0   -7.5880076            0            0            0            0            0            0 
10020000    930.32443    69126.204    616.61158   -295.73087    939.21903    643.48816    1581.3806   -295.73087            0    -7.575847            0            0            0            0            0            0 
10021000    929.97947     68134.08     630.7802    -299.3395    960.80057    661.46107    1585.5497    -299.3395            0   -7.6861616            0            0            0            0            0            0 
10022000    1011.7508    68425.682    621.41595    -292.9986    946.53701    653.53841    1663.1831    -292.9986            0   -7.6534063            0            0            0            0            0            0 
10023000    945.45892    66050.415    623.21369   -331.02341    949.27532    618.25191    1528.9913   -331.02341            0   -7.9286337            0            0            0            0            0            0 
10024000    843.81674    69323.472    590.15067   -297.87182    898.91392     601.0421    1454.1507   -297.87182            0   -7.5542891            0            0            0            0            0            0 
10025000     782.5651      69349.6    603.51402    -325.2973     919.2689     593.9716    1385.4523    -325.2973            0   -7.5514429            0            0            0            0            0            0 
10026000    1020.4357    64859.335    581.95673   -311.15811    886.43296    575.27485     1540.512   -311.15811            0   -8.0742355            0            0            0            0            0            0 
10027000    772.42126    70752.683    632.79946   -313.92421    963.87631     649.9521    1446.9791   -313.92421            0   -7.4016916            0            0            0            0            0            0 
10028000    996.72877    67416.696    615.94676   -297.66057    938.20637    640.54579    1620.5329   -297.66057            0   -7.7679503            0            0            0            0            0            0 
10029000    962.85169    66384.816     642.9994   -317.99465    979.41279    661.41814    1593.6073   -317.99465            0   -7.8886947            0            0            0            0            0            0 
10030000    872.49881    66974.678     592.0628   -324.48932    901.82646    577.33714    1429.5564   -324.48932            0   -7.8192171            0            0            0            0            0            0 
10031000    762.27729    70670.251    589.37706   -309.20479    897.73557    588.53078    1374.1742   -309.20479            0   -7.4103252            0            0            0            0            0            0 
10032000    928.64174    66006.649    590.63412   -324.76717     899.6503    574.88313    1468.8301   -324.76717            0   -7.9338908            0            0            0            0            0            0 
10033000    864.51432    68864.699     620.7387   -308.57299    945.50542    636.93243    1505.1823   -308.57299            0   -7.6046154            0            0            0            0            0            0 
10034000    991.43265    66578.865    629.20379   -312.25564     958.3994    646.14376    1608.8094   -312.25564            0   -7.8657025            0            0            0            0            0            0 
10035000     882.3171    68282.108    603.79345   -311.34211    919.69453    608.35241    1486.9854   -311.34211            0   -7.6694988            0            0            0            0            0            0 
10036000    819.26919    68687.665    584.60607   -311.74555    890.46842    578.72287    1399.4169   -311.74555            0   -7.6242153            0            0            0            0            0            0 
10037000    801.95012    64756.598    567.86654   -340.52885    864.97088    524.44202    1281.8106   -340.52885            0   -8.0870453            0            0            0            0            0            0 
10038000    791.26739    69388.253     595.9781   -315.08148    907.79023    592.70875    1393.4369   -315.08148            0   -7.5472364            0            0            0            0            0            0 
10039000     966.4769    65851.834    644.95518   -323.67743    982.39181    658.71438    1586.9009   -323.67743            0    -7.952543            0            0            0            0            0            0 
10040000     860.5205      67219.8    631.78307   -328.31451    962.32814    634.01363    1477.6093   -328.31451            0   -7.7907037            0            0            0            0            0            0 
10041000    748.83081    65601.948    615.08514   -354.73092    936.89396    582.16304    1298.5973   -354.73092            0   -7.9828353            0            0            0            0            0            0 
10042000    731.14701    71292.849    593.57749   -310.11004    904.13364     594.0236    1354.2213   -310.11004            0   -7.3456111            0            0            0            0            0            0 
10043000    869.94573    67891.864    606.38241   -322.89501    923.63801      600.743    1462.1052   -322.89501            0   -7.7135832            0            0            0            0            0            0 
10044000    812.37778    68300.785    576.70436   -317.31365    878.43259    561.11894    1370.3259   -317.31365            0   -7.6674016            0            0            0            0            0            0 
10045000    863.73497    67415.811    586.86727   -315.05196    893.91267    578.86072    1428.0767   -315.05196            0   -7.7680523            0            0            0            0            0            0 
10046000    969.80586    63627.939    590.09958   -336.94412     898.8361    561.89198    1461.8216   -336.94412            0   -8.2304967            0            0            0            0            0            0 
10047000    832.24511     70236.52    592.19747   -306.51451     902.0316    595.51709    1448.0087   -306.51451            0   -7.4560862            0            0            0            0            0            0 
10048000    823.77593    67669.352     582.4747   -319.73166    887.22193    567.49027    1380.4649   -319.73166            0   -7.7389473            0            0            0            0            0            0 
10049000    852.73014    68323.346    612.47794   -311.15777    932.92269    621.76492    1471.4473   -311.15777            0   -7.6648697            0            0            0            0            0            0 
10050000    958.83026    68862.246    611.05224   -293.97545    930.75107    636.77562    1599.7147   -293.97545            0   -7.6048862            0            0            0            0            0            0 
10051000    1013.7798    66708.499    616.52422   -302.92983    939.08596    636.15613    1622.4372   -302.92983            0   -7.8504171            0            0            0            0            0            0 
10052000    653.76616    69421.638    572.88419   -339.19807    872.61373    533.41566    1195.3169   -339.19807            0   -7.5436069            0            0            0            0            0            0 
10053000    1004.6511    65623.617    595.56017   -308.08742    907.15364    599.06622    1560.5707   -308.08742            0   -7.9801993            0            0            0            0            0            0 
10054000    906.78682     71261.39    620.46141   -286.71948    945.08306    658.36358    1600.7638   -286.71948            0   -7.3488539            0            0            0            0            0            0 
10055000    953.21205    66091.784    584.69954   -312.05529    890.61079     578.5555    1497.3384   -312.05529            0   -7.9236709            0            0            0            0            0            0 
10056000    929.76976    66247.054    570.08831   -316.13812    868.35505    552.21693    1450.5096   -316.13812            0   -7.9050994            0            0            0            0            0            0 
10057000    795.15319    68620.172    621.43841   -320.52783    946.57122    626.04339    1421.7968   -320.52783            0   -7.6317143            0            0            0            0            0            0 
10058000    805.90371    68626.721    570.74759     -324.351    869.35926    545.00826    1351.5973     -324.351            0   -7.6309859            0            0            0            0            0            0 
10059000     916.4487    66842.543    602.13475   -315.62723      917.168    601.54077    1494.9224   -315.62723            0   -7.8346742            0            0            0            0            0            0 
10060000    909.03695    66544.392    613.17534   -315.59067    933.98496    618.39429     1500.598   -315.59067            0   -7.8697773            0            0            0            0            0            0 
10061000    838.87702    69773.069    601.33158   -303.37525    915.94462    612.56937    1466.1843   -303.37525            0   -7.5056114            0            0            0            0            0            0 
10062000    851.85104    64642.728    586.26366   -342.99572    892.99325    549.99753    1353.0783   -342.99572            0   -8.1012909            0            0            0            0            0            0 
10063000    781.63103    69992.213    607.89734   -320.03048    925.94554    605.91505    1403.7764   -320.03048            0   -7.4821116            0            0            0            0            0            0 
10064000     876.7002    66636.444    597.04333   -325.10562    909.41277    584.30715    1436.3056   -325.10562            0    -7.858906            0            0            0            0            0            0 
10065000    873.81454    67856.953    589.47427   -316.06979    897.88364    581.81384    1446.5617   -316.06979            0   -7.7175517            0            0            0            0            0            0 
10066000    880.40442    69151.284     630.2025   -308.69704    959.92062    651.22358    1539.1119   -308.69704            0   -7.5730993            0            0            0            0            0            0 
10067000    983.14098    63812.429    617.57628   -337.54098    940.68845    603.14747    1518.0966   -337.54098            0   -8.2067013            0            0            0            0            0            0 
10068000    787.08109     70013.59    592.41935   -310.30025    902.36956    592.06931    1395.7392   -310.30025            0    -7.479827            0            0            0            0            0            0 
10069000    874.00945    68884.731    594.78783   -310.55907    905.97721    595.41814    1473.4595   -310.55907            0   -7.6024038            0            0            0            0            0            0 
10070000    905.73801    68444.587    590.89118   -312.77286    900.04186      587.269    1491.3713   -312.77286            0   -7.6512924            0            0            0            0            0            0 
10071000    872.57535     67123.07    584.05695   -317.71615      889.632    571.91585    1426.0983   -317.71615            0   -7.8019308            0            0            0            0            0            0 
10072000    972.04418    69842.068    581.47749   -281.58543    885.70299    604.11756    1594.2174   -281.58543            0   -7.4981964            0            0            0            0            0            0 
10073000    1109.9513    63157.654    614.80993   -314.68385    936.47475     621.7909    1644.1555   -314.68385            0   -8.2917827            0            0            0            0            0            0 
10074000    853.65283    70004.607    613.01278   -310.79509    933.73735    622.94225    1494.4752   -310.79509            0   -7.4807869            0            0            0            0            0            0 
10075000    903.64935    65985.799     570.9785    -322.0972    869.71099    547.61378    1417.2274    -322.0972            0   -7.9363977            0            0            0            0            0            0 
10076000    762.17922    68894.664    587.64113   -318.72532    895.09141    576.36609    1342.1718   -318.72532            0   -7.6013078            0            0            0            0            0            0 
10077000    842.32603    66550.528     622.8612   -339.20098     948.7384    609.53742    1427.0748   -339.20098            0   -7.8690517            0            0            0            0            0            0 
10078000    845.73067    68221.359    576.89494   -324.38024    878.72287    554.34263    1395.7927   -324.38024            0   -7.6763283            0            0            0            0            0            0 
10079000    897.81203     69847.22    593.23326   -295.01866    903.60931    608.59064    1523.1469   -295.01866            0   -7.4976434            0            0            0            0            0            0 
10080000    941.39854    67213.766    614.91712   -308.61039    936.63803    628.02764    1550.8277   -308.61039            0   -7.7914031            0            0            0            0            0            0 
10081000    928.34632    67752.451    605.21586    -308.5646    921.86113    613.29653    1530.5955    -308.5646            0   -7.7294554            0            0            0            0            0            0 
10082000    836.14406    67535.157    572.05283   -329.13178     871.3474    542.21563    1365.7598   -329.13178            0   -7.7543248            0            0            0            0            0            0 
10083000      862.539    66302.374    576.05267    -331.5783    877.43993    545.86163    1379.8955    -331.5783            0   -7.8985037            0            0            0            0            0            0 
10084000    808.96951    73396.158    592.58975   -280.50254    902.62912    622.12658    1488.0538   -280.50254            0   -7.1351084            0            0            0            0            0            0 
10085000    1081.5803    65836.738     621.2323   -308.72924    946.25727    637.52803    1676.0196   -308.72924            0   -7.9543665            0            0            0            0            0            0 
10086000    890.17462    72228.586    604.55953   -281.55709    920.86141    639.30432    1576.9963   -281.55709            0   -7.2504471            0            0            0            0            0            0 
10087000    849.52953    67717.407    582.01918   -317.99843    886.52809    568.52966    1407.5156   -317.99843            0   -7.7334553            0            0            0            0            0            0 
10088000    944.30216    68281.389    582.69641   -293.33561    887.55965    594.22404    1534.5734   -293.33561            0   -7.6695796            0            0            0            0            0            0 
10089000     970.3661     65764.27    638.49899   -323.08731    972.55779    649.47049    1580.1529   -323.08731            0   -7.9631317            0            0            0            0            0            0 
10090000     935.2533    68298.684    604.03709   -297.56222    920.06562     622.5034    1554.0777   -297.56222            0   -7.6676374            0            0            0            0            0            0 
10091000    770.38287    68727.814    610.59837   -320.30288    930.05973    609.75685    1381.9306   -320.30288            0   -7.6197614            0            0            0            0            0            0 
10092000    962.39881    67360.926    589.31922   -304.14604    897.64747    593.50143    1538.9524   -304.14604            0   -7.7743816            0            0            0            0            0            0 
10093000     778.2128     68805.57    585.54042   -315.29699    891.89162    576.59463     1357.499   -315.29699            0   -7.6111504            0            0            0            0            0            0 
10094000    912.93255    66498.864    582.74749   -303.05637    887.63745    584.58108    1469.9592   -303.05637            0   -7.8751653            0            0            0            0            0            0 
10095000    715.93304    70304.096    602.35901   -324.96089    917.50959    592.54869    1326.6042   -324.96089            0   -7.4489195            0            0            0            0            0            0 
10096000    842.96635    71003.664    575.58409   -290.14096     876.7262    586.58524      1459.49   -290.14096            0   -7.3755285            0            0            0            0            0            0 
10097000    958.60843    64769.974    607.60671   -325.91633    925.50285    599.58652    1505.0915   -325.91633            0   -8.0853752            0            0            0            0            0            0 
10098000    962.78209    68155.005     629.6377   -299.86425    959.06033    659.19607    1616.1734   -299.86425            0   -7.6838017            0            0            0            0            0            0 
10099000    868.20725    67295.706     572.9494   -305.71026    872.71304    567.00278    1419.0951   -305.71026            0   -7.7819162            0            0            0            0            0            0 
10100000    818.28767    66946.121    608.94166   -332.96833    927.53625    594.56792    1393.4953   -332.96833            0   -7.8225525            0            0            0            0            0            0 
10101000    947.86726    67245.675    626.71452   -304.65566    954.60775     649.9521    1579.5342   -304.65566            0   -7.7877059            0            0            0            0            0            0 
10102000    957.62701    67102.556    615.28813   -308.58913    937.20314    628.61401    1565.7688   -308.58913            0   -7.8043159            0            0            0            0            0            0 
10103000    856.48247    71108.049    581.11997   -288.66844    885.15842    596.48998    1484.6948   -288.66844            0   -7.3647014            0            0            0            0            0            0 
10104000     865.2945    69209.255    590.52545    -298.1546    899.48479    601.33019    1474.7117    -298.1546            0    -7.566756            0            0            0            0            0            0 
10105000    895.96929    67088.257    598.19158   -319.44738    911.16178     591.7144    1468.3428   -319.44738            0   -7.8059793            0            0            0            0            0            0 
10106000    814.14722    67542.293    618.26622   -328.36141    941.73936    613.37795    1415.3415   -328.36141            0   -7.7535056            0            0            0            0            0            0 
10107000    1059.0305     66226.78    593.52968   -295.82517    904.06081    608.23564    1631.0999   -295.82517            0   -7.9075194            0            0            0            0            0            0 
10108000    857.92432    68921.453     601.1865   -305.66828    915.72362    610.05535    1472.3969   -305.66828            0   -7.5983532            0            0            0            0            0            0 
10109000    1013.4125    65608.353    566.16112   -309.83758    862.37318    552.53561    1522.1996   -309.83758            0   -7.9820559            0            0            0            0            0            0 
10110000    802.45973    69308.619    575.86701   -304.38036    877.15714    572.77678    1383.8992   -304.38036            0   -7.5559079            0            0            0            0            0            0 
10111000    951.23748    67692.698    613.70417   -302.90083    934.79047    631.88964    1570.9784   -302.90083            0   -7.7362783            0            0            0            0            0            0 
10112000    837.38966    68629.406    626.31072    -314.3139    953.99269    639.67879    1477.8133    -314.3139            0   -7.6306875            0            0            0            0            0            0 
10113000    879.92954    65749.685    597.40446   -328.35375    909.96284     581.6091    1425.3662   -328.35375            0   -7.9648982            0            0            0            0            0            0 
10114000    879.91983    67112.426    596.16767   -318.91948    908.07898     589.1595     1450.395   -318.91948            0   -7.8031681            0            0            0            0            0            0 
10115000    883.78537    67366.395    652.90163   -320.76715     994.4958    673.72865    1542.0211   -320.76715            0   -7.7737504            0            0            0            0            0            0 
10116000    982.49834    65771.708    627.99843   -316.58757     956.5634    639.97582    1582.4009   -316.58757            0   -7.9622311            0            0            0            0            0            0 
10117000    870.39903    70111.658    616.37731   -298.68308    938.86218     640.1791    1530.1679   -298.68308            0   -7.4693647            0            0            0            0            0            0 
10118000    925.60788    64664.836    606.06558   -323.99221    923.15542     599.1632    1472.0765   -323.99221            0   -8.0985212            0            0            0            0            0            0 
10119000    830.98329    67544.546    600.01488   -320.55011    913.93903    593.38891    1411.9639   -320.55011            0    -7.753247            0            0            0            0            0            0 
10120000    870.36274    67180.748    606.70232   -316.24911     924.1253     607.8762    1460.6248   -316.24911            0   -7.7952324            0            0            0            0            0            0 
10121000    945.26643    68458.266     594.6009   -299.22731    905.69248    606.46518    1550.2131   -299.22731            0   -7.6497635            0            0            0            0            0            0 
10122000    833.70239    67413.672      602.462   -325.79062    917.66646    591.87584    1411.5381   -325.79062            0   -7.7682988            0            0            0            0            0            0 
10123000     813.0765    65784.692      591.276   -339.78307    900.62802    560.84495    1340.9124   -339.78307            0   -7.9606597            0            0            0            0            0            0 
10124000     917.3203    71170.969    624.80283   -287.06839    951.69588    664.62749    1616.7652   -287.06839            0   -7.3581905            0            0            0            0            0            0 
10125000    876.40388    67228.782    579.49302   -309.74235    882.68025     572.9379    1432.2193   -309.74235            0   -7.7896628            0            0            0            0            0            0 
10126000    856.11986    66651.715    574.19435   -314.47758    874.60936    560.13178    1392.3204   -314.47758            0   -7.8571053            0            0            0            0            0            0 
10127000    848.22938    69674.741    601.91059    -303.0919    916.82656    613.73466    1475.6499    -303.0919            0   -7.5162037            0            0            0            0            0            0 
10128000    906.09386    67769.439    636.07065   -315.13699    968.85896    653.72197    1549.2578   -315.13699            0   -7.7275178            0            0            0            0            0            0 
10129000    852.77586    66494.369     593.1521    -335.4459    903.48569    568.03979     1395.021    -335.4459            0   -7.8756977            0            0            0            0            0            0 
10130000    797.19145    71684.153    565.80392   -292.38725     861.8291    569.44184    1402.8575   -292.38725            0   -7.3055135            0            0            0            0            0            0 
10131000    928.79534    65889.016    625.83513   -324.46503    953.26828    628.80325    1521.3047   -324.46503            0   -7.9480553            0            0            0            0            0            0 
10132000    886.10222    68277.934    578.07864   -305.52683    880.52588    574.99905    1457.3474   -305.52683            0   -7.6699676            0            0            0            0            0            0 
10133000    973.06229    67749.101    585.56814   -295.38853    891.93384     596.5453    1557.9806   -295.38853            0   -7.7298375            0            0            0            0            0            0 
10134000    876.48442    67752.849    551.61045   -299.60833    840.20969    540.60136    1406.6607   -299.60833            0     -7.72941            0            0            0            0            0            0 
10135000    833.89597    68948.537    573.44087   -308.32882    873.46165    565.13283    1403.6517   -308.32882            0   -7.5953685            0            0            0            0            0            0 
10136000     883.5387    66558.757    616.13468   -322.18125     938.4926    616.31135    1473.9546   -322.18125            0   -7.8680788            0            0            0            0            0            0 
10137000    842.66909    67107.402      570.359    -325.1641    868.76737    543.60327    1368.3173    -325.1641            0   -7.8037524            0            0            0            0            0            0 
10138000      929.251    66020.821     589.2375   -313.50248    897.52298    584.02051    1478.7461   -313.50248            0   -7.9321878            0            0            0            0            0            0 
10139000    923.79553    67865.702    602.36925    -313.5276    917.52519    603.99759    1518.3257    -313.5276            0   -7.7165568            0            0            0            0            0            0 
10140000    938.84405    67389.372    634.45203   -313.84308    966.39348     652.5504    1575.2509   -313.84308            0   -7.7710999            0            0            0            0            0            0 
10141000    854.29091     67727.69     593.9454   -312.93191    904.69403    591.76212    1435.5785   -312.93191            0   -7.7322812            0            0            0            0            0            0 
10142000    963.05682    66840.049    602.36177   -306.59598    917.51379    610.91781    1549.6994   -306.59598            0   -7.8349665            0            0            0            0            0            0 
10143000    1000.8501    69928.362    595.28703   -283.91272    906.73759    622.82487    1643.5253   -283.91272            0   -7.4889434            0            0            0            0            0            0 
10144000    907.78102     65615.56    595.30948   -325.61845    906.77179    581.15334    1449.8414   -325.61845            0   -7.9811792            0            0            0            0            0            0 
10145000    906.26235    66848.011    594.40644   -320.63638    905.39629    584.75991    1468.2838   -320.63638            0   -7.8340333            0            0            0            0            0            0 
10146000    876.29034    66958.951    599.51143   -320.93632    913.17218    592.23586    1447.9576   -320.93632            0   -7.8210536            0            0            0            0            0            0 
10147000    972.96488    64397.105    595.24455   -315.51847    906.67289    591.15442    1504.9297   -315.51847            0   -8.1321908            0            0            0            0            0            0 
10148000    874.80322    68982.508    605.11785   -308.81751    921.71183    612.89432    1492.9806   -308.81751            0   -7.5916281            0            0            0            0            0            0 
10149000    971.36202    67249.729    575.67057   -304.40247    876.85792    572.45545    1525.1365   -304.40247            0   -7.7872365            0            0            0            0            0            0 
10150000    874.09639    72539.962    634.22526   -279.85595    966.04808    686.19213     1610.917   -279.85595            0   -7.2193248            0            0            0            0            0            0 
10151000    949.78687     66209.63    592.63966   -313.18745    902.70514    589.51769    1506.6315   -313.18745            0   -7.9095676            0            0            0            0            0            0 
10152000     838.6971    67874.176    601.12215   -319.53652    915.62561    596.08909    1426.2946   -319.53652            0   -7.7155934            0            0            0            0            0            0 
10153000    885.00074    67902.771    587.41395   -315.24766    894.74536     579.4977    1455.9071   -315.24766            0   -7.7123442            0            0            0            0            0            0 
10154000    948.06054    64577.802    558.98271   -316.41404    851.43907    535.02503    1427.9094   -316.41404            0   -8.1094359            0            0            0            0            0            0 
10155000    815.94224    70235.496    603.58975   -300.63804    919.38425    618.74622    1454.5262   -300.63804            0   -7.4561949            0            0            0            0            0            0 
10156000    907.93693    68153.304    586.13653   -304.74535     892.7996    588.05425    1490.4946   -304.74535            0   -7.6839935            0            0            0            0            0            0 
10157000    922.18892    67662.062    585.15044   -301.26143    891.29761    590.03617    1500.0354   -301.26143            0    -7.739781            0            0            0            0            0            0 
10158000     922.6584    68580.307    603.66617   -305.25962    919.50064    614.24103    1537.0594   -305.25962            0   -7.6361505            0            0            0            0            0            0 
10159000    907.30447    67589.509    627.33576   -309.27277    955.55403    646.28125    1540.6327   -309.27277            0   -7.7480892            0            0            0            0            0            0 
10160000    804.39608    68728.886    562.08365    -315.6631    856.16241    540.49931    1346.7779    -315.6631            0   -7.6196425            0            0            0            0            0            0 
10161000    916.18976    67063.454    585.97103   -313.96376    892.54753    578.58376    1474.6647   -313.96376            0   -7.8088663            0            0            0            0            0            0 
10162000    738.97503    70807.632    560.12928   -308.47867    853.18552    544.70685    1307.8144   -308.47867            0   -7.3959477            0            0            0            0            0            0 
10163000    1147.6562    64820.551    612.55445   -305.01955    933.03923    628.01968    1712.9464   -305.01955            0   -8.0790665            0            0            0            0            0            0 
10164000    989.18912    69101.396    614.46662   -284.11675    935.95183    651.83507    1648.7131   -284.11675            0   -7.5785668            0            0            0            0            0            0 
10165000    878.00399    65899.145    608.76532   -330.44035    927.26765    596.82729    1440.6518   -330.44035            0   -7.9468337            0            0            0            0            0            0 
10166000    810.40837    70816.457    588.48068   -303.99723     896.3702    592.37298    1429.3509   -303.99723            0   -7.3950261            0            0            0            0            0            0 
10167000    1149.3665    64574.288    621.67428   -300.19588    946.93049    646.73461    1729.1502   -300.19588            0   -8.1098772            0            0            0            0            0            0 
10168000    813.76145    71580.982    607.25692   -301.02144    924.97006    623.94863    1473.4628   -301.02144            0   -7.3160431            0            0            0            0            0            0 
10169000    969.36703    65491.288    568.53759   -311.12917    865.99301    554.86384    1480.7288   -311.12917            0   -7.9963238            0            0            0            0            0            0 
10170000    794.36991    66977.202    587.51935   -337.67181    894.90592     557.2341    1333.1697   -337.67181            0   -7.8189225            0            0            0            0            0            0 
10171000    866.96866    68267.269    595.42646   -312.53352    906.94998    594.41646    1457.5775   -312.53352            0   -7.6711659            0            0            0            0            0            0 
10172000    922.69325     66695.45    534.16988   -307.01693    813.64432    506.62739     1404.117   -307.01693            0   -7.8519531            0            0            0            0            0            0 
10173000     954.5403    67553.111    638.83927   -307.56606    973.07611    665.51005    1605.9163   -307.56606            0   -7.7522639            0            0            0            0            0            0 
10174000    858.65136    69749.056    628.47985   -308.71201    957.29669    648.58468    1522.0207   -308.71201            0   -7.5081954            0            0            0            0            0            0 
10175000    917.06905    65520.616    620.69977   -327.68521    945.44612    617.76092    1494.0671   -327.68521            0   -7.9927446            0            0            0            0            0            0 
10176000    795.63074    69074.272    665.39654   -329.50263     1013.528    684.02534    1485.5258   -329.50263            0   -7.5815428            0            0            0            0            0            0 
10177000    966.43915    67498.776    609.98741    -308.0785    929.12912    621.05062    1572.4137    -308.0785            0   -7.7585044            0            0            0            0            0            0 
10178000    962.16222    65555.011    580.37103   -319.18099    884.01763    564.83664    1484.7143   -319.18099            0    -7.988551            0            0            0            0            0            0 
10179000    963.65423    67678.502    624.52155   -306.01668    951.26743    645.25075    1596.3982   -306.01668            0    -7.737901            0            0            0            0            0            0 
10180000    1043.5941    69262.872    606.95761   -278.81547    924.51414    645.69868    1699.8623   -278.81547            0   -7.5608985            0            0            0            0            0            0 
10181000    962.31004    67686.705     579.7234   -293.99546    883.03117    589.03571    1538.9716   -293.99546            0   -7.7369632            0            0            0            0            0            0 
10182000    892.48148     67295.14    584.03487   -312.40994    889.59837    577.18843     1453.097   -312.40994            0   -7.7819817            0            0            0            0            0            0 
10183000    728.34036    70536.635     554.5615   -314.26373    844.70471    530.44098     1279.688   -314.26373            0   -7.4243625            0            0            0            0            0            0 
10184000    845.16355    66838.479    584.90727   -332.06135    890.92721    558.86586    1382.7065   -332.06135            0   -7.8351506            0            0            0            0            0            0 
10185000    911.56705    68136.155    675.81453   -311.53974    1029.3966    717.85686    1623.6773   -311.53974            0   -7.6859274            0            0            0            0            0            0 
10186000    811.00843    70537.619    627.55747    -306.9043    955.89173    648.98742    1483.2871    -306.9043            0   -7.4242589            0            0            0            0            0            0 
10187000    855.61717    67324.975    593.48312   -315.76109    903.98989    588.22879    1428.3299   -315.76109            0   -7.7785331            0            0            0            0            0            0 
10188000     955.0124    65850.208    582.34568   -317.05986    887.02541    569.96555    1487.1191   -317.05986            0   -7.9527395            0            0            0            0            0            0 
10189000     857.4942    68803.129    585.98988   -308.64078    892.57622    583.93545    1444.3649   -308.64078            0   -7.6114205            0            0            0            0            0            0 
10190000    824.32347    70011.335    589.49015   -304.83028    897.90782    593.07754    1434.7477   -304.83028            0   -7.4800679            0            0            0            0            0            0 
10191000    986.72897    65997.794    612.80524   -307.04074    933.42122    626.38049    1576.1171   -307.04074            0   -7.9349553            0            0            0            0            0            0 
10192000    966.37106    69250.186    570.90142   -279.10653    869.59358    590.48705    1566.4667   -279.10653            0   -7.5622836            0            0            0            0            0            0 
10193000    802.29252    68235.435    571.63084   -315.09077    870.70462    555.61385    1354.0103   -315.09077            0   -7.6747448            0            0            0            0            0            0 
10194000    866.42875    67858.512    582.74555   -309.78018    887.63448    577.85431    1435.3127   -309.78018            0   -7.7173744            0            0            0            0            0            0 
10195000    861.05048     65212.05    621.85262   -334.71029    947.20214    612.49186    1431.3947   -334.71029            0    -8.030564            0            0            0            0            0            0 
10196000    870.46931    69624.636    576.46739   -298.38591    878.07164    579.68573    1463.5637   -298.38591            0   -7.5216127            0            0            0            0            0            0 
10197000    956.08105     65815.75    598.42503    -331.9453    911.51738    579.57208    1497.2715    -331.9453            0   -7.9569031            0            0            0            0            0            0 
10198000     861.5557    70448.693    621.82426   -292.61454    947.15894     654.5444    1539.7256   -292.61454            0   -7.4336304            0            0            0            0            0            0 
10199000    898.54038    62828.873    614.02309   -356.26062    935.27624    579.01562    1402.3434   -356.26062            0   -8.3351733            0            0            0            0            0            0 
10200000     831.1145    71068.174    576.27101   -283.52183    877.77251    594.25068    1455.6646   -283.52183            0   -7.3688336            0            0            0            0            0            0 
10201000    904.01738    66946.083    602.02261   -321.85594    916.99719    595.14125    1477.7695   -321.85594            0   -7.8225569            0            0            0            0            0            0 
10202000    856.16848    70159.435    601.13024    -297.2296    915.63794    618.40834    1494.4428    -297.2296            0   -7.4642782            0            0            0            0            0            0 
10203000    999.81527    67821.014    632.40342   -305.29553    963.27306    657.97753    1646.8947   -305.29553            0   -7.7216413            0            0            0            0            0            0 
10204000    986.32362     67498.61    617.86237   -300.18754    941.12421    640.93667    1611.8717   -300.18754            0   -7.7585234            0            0            0            0            0            0 
10205000    858.79907    66332.649    577.84678   -321.01011    880.17271     559.1626    1389.9594   -321.01011            0   -7.8948987            0            0            0            0            0            0 
10206000    795.12259    70331.727    626.51274   -313.45344     954.3004    640.84696     1456.417   -313.45344            0    -7.445993            0            0            0            0            0            0 
10207000    941.92932    66299.887    546.99376   -310.51637    833.17758    522.66121    1433.4276   -310.51637            0   -7.8987999            0            0            0            0            0            0 
10208000    927.51487    67178.283     604.8796    -311.8814    921.34894    609.46755    1518.1783    -311.8814            0   -7.7955185            0            0            0            0            0            0 
10209000    853.44988    66509.737    622.52266   -336.65115    948.22274    611.57159    1439.3977   -336.65115            0   -7.8738779            0            0            0            0            0            0 
10210000    847.79645    69076.843    616.70831    -306.3522    939.36636    633.01416    1487.0969    -306.3522            0   -7.5812605            0            0            0            0            0            0 
10211000    1084.9818     66470.35    613.71361   -294.96125    934.80485     639.8436     1691.627   -294.96125            0   -7.8785435            0            0            0            0            0            0 
10212000    836.82369    70271.266    658.91829   -313.98066    1003.6603    689.67968    1547.2853   -313.98066            0   -7.4523995            0            0            0            0            0            0 
10213000    888.04159    65483.171    565.43464   -326.79705    861.26662    534.46956    1382.5536   -326.79705            0    -7.997315            0            0            0            0            0            0 
10214000    878.34593    67986.884     568.1566   -309.56709    865.41269     555.8456    1426.7422   -309.56709            0   -7.7028026            0            0            0            0            0            0 
10215000    896.12316    71982.778    634.90722   -293.10949    967.08682    673.97733    1614.7229   -293.10949            0   -7.2752061            0            0            0            0            0            0 
10216000     874.5893    67723.204    585.57588   -308.76339    891.94564    583.18224    1446.9909   -308.76339            0   -7.7327934            0            0            0            0            0            0 
10217000    890.13094    65671.734    585.00367   -335.71241    891.07405    555.36164    1407.8889   -335.71241            0   -7.9743524            0            0            0            0            0            0 
10218000    836.73264    70858.264    618.96403   -291.82396    942.80226     650.9783    1515.6537   -291.82396            0   -7.3906629            0            0            0            0            0            0 
10219000    851.63088    66122.096    577.93318   -317.79533    880.30431    562.50899    1383.7562   -317.79533            0   -7.9200385            0            0            0            0            0            0 
10220000    873.51481    68171.228    626.21081   -313.23197     953.8405    640.60853    1509.0635   -313.23197            0   -7.6819732            0            0            0            0            0            0 
10221000    967.73956    68131.494    618.31977   -294.17996    941.82093    647.64097     1609.214   -294.17996            0   -7.6864533            0            0            0            0            0            0 
10222000    959.99791    68659.914    614.85674   -294.98693    936.54606    641.55913    1602.8381   -294.98693            0   -7.6272969            0            0            0            0            0            0 
10223000    989.73696     65421.98    629.87105   -323.62502    959.41576    635.79073    1580.1111   -323.62502            0   -8.0047951            0            0            0            0            0            0 
10224000    896.64335    70247.717    594.29417   -285.50425    905.22528    619.72103     1538.324   -285.50425            0   -7.4548977            0            0            0            0            0            0 
10225000    839.02403    66759.676    551.24229   -318.89161    839.64891     520.7573     1337.649   -318.89161            0   -7.8443992            0            0            0            0            0            0 
10226000    799.55794    66741.322    597.11001   -328.89664    909.51435    580.61771    1358.8704   -328.89664            0   -7.8465564            0            0            0            0            0            0 
10227000    831.08801    71100.253     607.6839   -303.67201    925.62044    621.94843    1483.7237   -303.67201            0   -7.3655089            0            0            0            0            0            0 
10228000    1104.0518    65190.066    619.55045   -292.77692    943.69549    650.91857     1700.574   -292.77692            0   -8.0332723            0            0            0            0            0            0 
10229000    898.68532    68672.768    609.11663   -304.46972    927.80275    623.33303     1523.386   -304.46972            0   -7.6258691            0            0            0            0            0            0 
10230000    926.84176    66548.588    590.52672   -319.38957    899.48672    580.09715    1479.6368   -319.38957            0   -7.8692811            0            0            0            0            0            0 
10231000    815.67937    68724.271    577.48244   -311.92297    879.61775    567.69478    1385.2282   -311.92297            0   -7.6201542            0            0            0            0            0            0 
10232000    1004.7345    63361.891    599.83252   -329.11802    913.66125    584.54324    1512.9864   -329.11802            0   -8.2650556            0            0            0            0            0            0 
10233000    986.05268    70657.464    609.26111   -278.48014    928.02283    649.54269    1665.6371   -278.48014            0   -7.4116663            0            0            0            0            0            0 
10234000     975.4155    66674.485    578.73125   -310.90541    881.51992    570.61452     1519.088   -310.90541            0    -7.854422            0            0            0            0            0            0 
10235000    816.17985    69107.757     579.0163   -322.97905    881.95412    558.97507    1381.5748   -322.97905            0   -7.5778693            0            0            0            0            0            0 
10236000    876.24673    69397.059    624.75359   -317.53005    951.62088    634.09082    1520.9269   -317.53005            0   -7.5462786            0            0            0            0            0            0 
10237000     983.2721    64554.258    604.46977   -324.94952    920.72469    595.77517    1521.4842   -324.94952            0   -8.1123935            0            0            0            0            0            0 
10238000     827.4796    68232.075    603.11629   -315.74121    918.66307    602.92185    1426.3425   -315.74121            0   -7.6751227            0            0            0            0            0            0 
10239000    957.84165    67678.275    611.18701   -300.40223    930.95634    630.55411    1575.9613   -300.40223            0   -7.7379269            0            0            0            0            0            0 
10240000    866.51402    65727.414     624.9289   -337.15584    951.88792    614.73208    1445.3438   -337.15584            0    -7.967597            0            0            0            0            0            0 
10241000    852.46568    67821.332    605.72932   -316.45491    922.64323    606.18832     1449.366   -316.45491            0   -7.7216052            0            0            0            0            0            0 
10242000    849.55126    66490.027    578.86774   -326.11927    881.72782    555.60855    1379.4089   -326.11927            0   -7.8762119            0            0            0            0            0            0 
10243000     783.9083    69696.344     580.3184   -311.77781    883.93747    572.15966     1368.963   -311.77781            0    -7.513874            0            0            0            0            0            0 
10244000    969.80683    68117.204    588.68035   -286.59256    896.67433    610.08177    1573.5068   -286.59256            0   -7.6880658            0            0            0            0            0            0 
10245000    878.87505     69050.77    607.56995   -296.77018    925.44686    628.67668    1513.7343   -296.77018            0   -7.5841232            0            0            0            0            0            0 
10246000    970.81627    65701.596    637.06606   -326.72943    970.37516    643.64573    1573.8725   -326.72943            0   -7.9707279            0            0            0            0            0            0 
10247000    860.42933    66698.452    569.26409   -316.03081    867.09962    551.06881    1388.0329   -316.03081            0   -7.8515997            0            0            0            0            0            0 
10248000    880.77502    67446.591    623.48347   -318.97074    949.68624     630.7155    1497.0805   -318.97074            0   -7.7645073            0            0            0            0            0            0 
10249000    871.44409    66042.758    611.45236    -338.4945    931.36053    592.86603    1432.2113    -338.4945            0   -7.9295529            0            0            0            0            0            0 
10250000    814.33676    70290.001     574.8936   -300.29402    875.67444    575.38042    1410.1632   -300.29402            0   -7.4504131            0            0            0            0            0            0 
10251000    903.86465    65429.604    633.70982   -335.77572    965.26295    629.48723    1491.9763   -335.77572            0   -8.0038624            0            0            0            0            0            0 
10252000    854.94329    67532.712     621.4201   -327.38799    946.54332    619.15533     1461.185   -327.38799            0   -7.7546056            0            0            0            0            0            0 
10253000    875.45501    69173.039    604.69323   -306.62934    921.06506    614.43572    1497.6103   -306.62934            0   -7.5707176            0            0            0            0            0            0 
10254000    861.10379    65524.093    631.25227   -346.66247    961.51963    614.85715    1437.7294   -346.66247            0   -7.9923204            0            0            0            0            0            0 
10255000    968.13707    68383.565    619.03461   -295.45388    942.90976    647.45588     1612.983   -295.45388            0   -7.6581199            0            0            0            0            0            0 
10256000    977.54041     66044.48    639.25693   -318.35588    973.71228     655.3564    1596.9145   -318.35588            0   -7.9293462            0            0            0            0            0            0 
10257000    916.09057    68864.553    607.48762   -298.91736    925.32145    626.40409    1546.4511   -298.91736            0   -7.6046315            0            0            0            0            0            0 
10258000    968.39812     65550.69    596.97791   -311.10745    909.31313    598.20568    1523.9842   -311.10745            0   -7.9890776            0            0            0            0            0            0 
10259000    700.50506    68768.554    600.25148   -327.12919    914.29941    587.17022    1289.7199   -327.12919            0   -7.6152473            0            0            0            0            0            0 
10260000    793.52833    71825.612    589.24168   -296.14259    897.52935    601.38676      1432.61   -296.14259            0   -7.2911255            0            0            0            0            0            0 
10261000    886.00985    65608.303    654.11117   -341.02484    996.33817    655.31333     1503.074   -341.02484            0    -7.982062            0            0            0            0            0            0 
10262000    833.24212    71007.366    617.69885   -298.36071    940.87514    642.51442    1505.3946   -298.36071            0   -7.3751439            0            0            0            0            0            0 
10263000    876.24481     67407.78    613.99893   -326.75106    935.23945    608.48839    1469.9013   -326.75106            0   -7.7689777            0            0            0            0            0            0 
10264000    975.49685    68306.815    615.91287   -295.41027    938.15476    642.74449    1614.5196   -295.41027            0   -7.6667247            0            0            0            0            0            0 
10265000    750.22267    66611.926    618.54507    -347.9454     942.1641     594.2187     1323.035    -347.9454            0   -7.8617986            0            0            0            0            0            0 
10266000    829.48002     66163.15    564.32097   -332.72367    859.57028    526.84661    1327.2299   -332.72367            0   -7.9151241            0            0            0            0            0            0 
10267000    821.03409    66793.783    588.09857   -331.25723    895.78818    564.53095    1364.3157   -331.25723            0   -7.8403936            0            0            0            0            0            0 
10268000    755.42151    70925.541    601.89984   -315.40066    916.81019    601.40953    1382.7996   -315.40066            0   -7.3836525            0            0            0            0            0            0 
10269000    980.57679     67290.13    612.11229   -303.22267    932.36573    629.14306    1591.4395   -303.22267            0   -7.7825611            0            0            0            0            0            0 
10270000    960.68126    64886.146    617.44197   -330.43391    940.48386    610.04994    1519.1406   -330.43391            0   -8.0708992            0            0            0            0            0            0 
10271000    841.50433    70770.643    604.26662   -311.62715    920.41525     608.7881    1477.3192   -311.62715            0   -7.3998133            0            0            0            0            0            0 
10272000    958.60983    66861.279    598.29835   -311.30089    911.32442    600.02353     1534.767   -311.30089            0   -7.8324787            0            0            0            0            0            0 
10273000    953.87692    67419.192    600.41449   -304.76239    914.54771    609.78532     1547.675   -304.76239            0   -7.7676628            0            0            0            0            0            0 
10274000     882.0321    69909.448    621.13969    -292.0504     946.1162     654.0658    1553.3483    -292.0504            0   -7.4909695            0            0            0            0            0            0 
10275000    866.23197    67332.427    566.14312   -311.39447    862.34577     550.9513    1401.5689   -311.39447            0   -7.7776722            0            0            0            0            0            0 
10276000    824.89184    68114.019    587.74875   -314.29266    895.25533    580.96267     1400.388   -314.29266            0   -7.6884253            0            0            0            0            0            0 
10277000    807.67874    69084.261    568.79249   -314.14736    866.38127     552.2339    1365.9889   -314.14736            0   -7.5804466            0            0            0            0            0            0 
10278000     875.5614    68916.695    595.73804   -304.43288    907.42457    602.99168    1483.0003   -304.43288            0   -7.5988778            0            0            0            0            0            0 
10279000    921.52419    64832.659    599.71525   -326.33491    913.48264    587.14772    1458.4653   -326.33491            0   -8.0775577            0            0            0            0            0            0 
10280000     872.1321     66465.68    600.99357   -322.95732    915.42977    592.47245    1437.8595   -322.95732            0   -7.8790971            0            0            0            0            0            0 
10281000    1086.3763    68927.397    659.07388    -274.6555    1003.8973    729.24183    1821.3057    -274.6555            0    -7.597698            0            0            0            0            0            0 
10282000    920.30335    69754.573     611.3133   -295.20704    931.14871    635.94166    1572.1652   -295.20704            0   -7.5076016            0            0            0            0            0            0 
10283000     1014.489     65925.54    600.11517   -305.79588    914.09179    608.29592    1583.6828   -305.79588            0    -7.943652            0            0            0            0            0            0 
10284000    836.00466    69243.246    585.99646   -309.87092    892.58626    582.71534    1426.9477   -309.87092            0   -7.5630416            0            0            0            0            0            0 
10285000    940.12382    67098.087    576.97414   -311.56735    878.84352    567.27616    1487.2407   -311.56735            0   -7.8048358            0            0            0            0            0            0 
10286000     905.8491     67275.83    662.85824   -322.05001    1009.6617    687.61164    1576.3846   -322.05001            0   -7.7842153            0            0            0            0            0            0 
10287000    922.75436    66564.171    599.00965   -319.08232    912.40787    593.32556     1489.108   -319.08232            0   -7.8674389            0            0            0            0            0            0 
10288000    796.88624    72642.929    557.56537   -279.72351     849.2802    569.55669     1413.796   -279.72351            0   -7.2090919            0            0            0            0            0            0 
10289000    1022.2495    65495.624    600.96387   -310.20729    915.38452    605.17723    1581.6162   -310.20729            0   -7.9957944            0            0            0            0            0            0 
10290000    991.66986    70001.328    584.05178   -277.09009    889.62413    612.53403    1624.9274   -277.09009            0   -7.4811373            0            0            0            0            0            0 
10291000    1076.9954    66198.047    615.32676   -301.19464      937.262    636.06735    1675.8316   -301.19464            0   -7.9109516            0            0            0            0            0            0 
10292000    912.34372    68725.711       603.53   -312.95016    919.29324    606.34307    1520.7797   -312.95016            0   -7.6199946            0            0            0            0            0            0 
10293000     824.1901    67371.761    581.71314   -322.86509    886.06193    563.19684    1373.0032   -322.86509            0   -7.7731313            0            0            0            0            0            0 
10294000    765.35633    66216.555     598.7451   -338.59439    912.00491    573.41052    1312.5155   -338.59439            0   -7.9087404            0            0            0            0            0            0 
10295000    769.43977    66850.144    586.08746   -344.14518    892.72486    548.57968    1298.7379   -344.14518            0   -7.8337833            0            0            0            0            0            0 
10296000    938.99224    69990.919     585.7648   -282.45294    892.23339    609.78045    1568.2528   -282.45294            0   -7.4822499            0            0            0            0            0            0 
10297000    1032.3408    65366.893    595.70653   -313.46316    907.37657    593.91341    1578.0533   -313.46316            0    -8.011541            0            0            0            0            0            0 
10298000    910.58534    68962.863    625.94989   -306.06037    953.44308    647.38271    1563.2063   -306.06037            0   -7.5937907            0            0            0            0            0            0 
10299000    1024.5878    65409.903    623.88666   -306.56065    950.30038    643.73973    1621.1313   -306.56065            0    -8.006273            0            0            0            0            0            0 
10300000     786.2662    70273.898    576.16461   -304.36468    877.61044    573.24576    1379.0685   -304.36468            0   -7.4521203            0            0            0            0            0            0 
10301000    982.76059    64936.444    589.58471   -320.90911    898.05185    577.14275    1507.8479   -320.90911            0   -8.0646477            0            0            0            0            0            0 
10302000    887.43812    68324.465    609.17548   -310.79086    927.89239    617.10153    1501.3824   -310.79086            0   -7.6647442            0            0            0            0            0            0 
10303000    966.23187    68184.962    613.76271   -298.87886    934.87964    636.00078    1596.8292   -298.87886            0   -7.6804258            0            0            0            0            0            0 
10304000    801.24094    66873.676    595.38867   -323.51471    906.89241     583.3777    1364.8151   -323.51471            0   -7.8310267            0            0            0            0            0            0 
10305000    764.09788    67225.193    599.16634   -336.14154    912.64653    576.50499    1325.6346   -336.14154            0   -7.7900787            0            0            0            0            0            0 
10306000    831.01819    70570.516    604.59743   -291.45359    920.91913    629.46555    1484.7483   -291.45359            0    -7.420798            0            0            0            0            0            0 
10307000    937.01082    64138.232    603.34394   -335.94441    919.00984    583.06543    1459.5363   -335.94441            0   -8.1650138            0            0            0            0            0            0 
10308000    807.85399    70367.197    606.43753   -303.14717    923.72196    620.57479    1449.6215   -303.14717            0   -7.4422396            0            0            0            0            0            0 
10309000    998.00078    68975.088    617.92961   -282.70208    941.22664    658.52456    1662.4444   -282.70208            0   -7.5924448            0            0            0            0            0            0 
10310000    852.06307    65078.765     579.9406   -334.19186    883.36201    549.17015    1357.8692   -334.19186            0   -8.0470111            0            0            0            0            0            0 
10311000    854.04296     66449.47     609.5715   -324.97622    928.49562    603.51939    1431.1702   -324.97622            0   -7.8810191            0            0            0            0            0            0 
10312000     869.2894    68697.827    602.47434   -308.06065    917.68526    609.62462    1480.5547   -308.06065            0   -7.6230875            0            0            0            0            0            0 
10313000    907.52625    66237.174    599.90465   -332.85864    913.77112    580.91248     1457.584   -332.85864            0   -7.9062785            0            0            0            0            0            0 
10314000    914.94291    65980.235    606.35057    -323.9853    923.58951    599.60421    1480.0117    -323.9853            0    -7.937067            0            0            0            0            0            0 
10315000     919.5361    69117.535    587.26924   -291.51814    894.52495    603.00681    1529.9069   -291.51814            0   -7.5767972            0            0            0            0            0            0 
10316000    877.98486    69138.979    597.85568   -301.12073    910.65015    609.52942    1494.8201   -301.12073            0   -7.5744472            0            0            0            0            0            0 
10317000    1024.2626    68197.669    615.06992   -295.30917    936.87078    641.56161    1660.2861   -295.30917            0   -7.6789948            0            0            0            0            0            0 
10318000    833.39371    67111.499    615.26755   -327.65407     937.1718    609.51773    1425.2038   -327.65407            0    -7.803276            0            0            0            0            0            0 
10319000    736.92731    68026.504    574.34065   -330.49719     874.8322    544.33501    1275.4382   -330.49719            0   -7.6983163            0            0            0            0            0            0 
10320000    925.55677    67455.349    604.60281   -314.68665    920.92733    606.24068     1516.773   -314.68665            0   -7.7634992            0            0            0            0            0            0 
10321000    930.25928     64964.49    557.57263   -322.69308    849.29125    526.59817    1407.9634   -322.69308            0   -8.0611662            0            0            0            0            0            0 
10322000    946.41328    71462.398     612.1344   -279.16415     932.3994    653.23525    1639.5926   -279.16415            0   -7.3281832            0            0            0            0            0            0 
10323000    787.59684    68555.116    580.06665    -319.7184      883.554     563.8356    1351.2797    -319.7184            0   -7.6389565            0            0            0            0            0            0 
10324000    967.69499    66863.176    567.50679   -300.57944     864.4229    563.84346    1507.4727   -300.57944            0   -7.8322565            0            0            0            0            0            0 
10325000    736.44986    72089.745    582.20619   -304.57263    886.81294    582.24031    1356.5105   -304.57263            0   -7.2644111            0            0            0            0            0            0 
10326000    987.58996    63291.675     590.0651   -336.47745    898.78358    562.30613    1473.8953   -336.47745            0   -8.2742248            0            0            0            0            0            0 
10327000    690.20737    70399.232    571.59371   -313.73289    870.64808    556.91518    1265.5515   -313.73289            0   -7.4388531            0            0            0            0            0            0 
10328000    800.48576    66017.377    603.95365   -341.04654    919.93853    578.89199    1349.5963   -341.04654            0   -7.9326015            0            0            0            0            0            0 
10329000    836.63568    68933.481    639.22624    -324.7413    973.66554    648.92424    1490.0143    -324.7413            0   -7.5970274            0            0            0            0            0            0 
10330000    920.95452    68071.863    574.46043   -313.15915    875.01464    561.85549    1476.1407   -313.15915            0   -7.6931866            0            0            0            0            0            0 
10331000    934.95942    66961.438    572.79058   -307.68497    872.47114    564.78618    1477.8338   -307.68497            0   -7.8207631            0            0            0            0            0            0 
10332000    853.41461    67129.392    570.87052   -319.78215    869.54651    549.76436    1385.2686   -319.78215            0   -7.8011961            0            0            0            0            0            0 
10333000    784.55447    66994.565    607.68571   -332.10918    925.62319    593.51401    1360.0606   -332.10918            0    -7.816896            0            0            0            0            0            0 
10334000    843.42699    72789.336     629.5276   -302.63757    958.89263    656.25506    1551.6016   -302.63757            0   -7.1945916            0            0            0            0            0            0 
10335000    849.01511    67305.042    597.62194   -315.67744    910.29412    594.61669    1427.9887   -315.67744            0   -7.7808368            0            0            0            0            0            0 
10336000    978.96132    67817.173    599.27018   -291.60374    912.80471    621.20097    1589.4367   -291.60374            0   -7.7220787            0            0            0            0            0            0 
10337000    1003.4671    66939.436    661.81842   -311.28755    1008.0778    696.79025     1676.418   -311.28755            0   -7.8233337            0            0            0            0            0            0 
10338000    865.21264    68635.288     583.6662   -308.14849    889.03681    580.88832    1446.9448   -308.14849            0   -7.6300335            0            0            0            0            0            0 
10339000    960.00549      66880.7    619.48302   -309.87395    943.59277    633.71882    1570.0951   -309.87395            0   -7.8302043            0            0            0            0            0            0 
10340000    781.16116    70224.193    609.61405   -310.03946    928.56042    618.52096    1418.5455   -310.03946            0    -7.457395            0            0            0            0            0            0 
10341000    754.01123    64603.572    569.58916   -346.33539    867.59476    521.25937    1231.6713   -346.33539            0   -8.1062011            0            0            0            0            0            0 
10342000    774.09621    71108.989    633.51266   -303.18233    964.96264    661.78031    1464.5581   -303.18233            0    -7.364604            0            0            0            0            0            0 
10343000    846.85885    67846.171    621.29458    -319.9372    946.35214    626.41494    1464.3537    -319.9372            0   -7.7187782            0            0            0            0            0            0 
10344000    923.68721     66681.75    620.95055   -321.64939    945.82812    624.17873    1522.4506   -321.64939            0   -7.8535663            0            0            0            0            0            0 
10345000    998.25165    67486.413    608.56505   -299.78315    926.96259    627.17944    1609.6788   -299.78315            0   -7.7599256            0            0            0            0            0            0 
10346000     870.7832    66152.747    576.68227   -322.04652    878.39893    556.35241    1396.4579   -322.04652            0   -7.9163688            0            0            0            0            0            0 
10347000    848.31047    64773.078    555.04996   -334.26351    845.44873    511.18522    1312.5408   -334.26351            0   -8.0849878            0            0            0            0            0            0 
10348000    887.82025    70020.125    618.70366   -298.25395    942.40567    644.15172    1550.7686   -298.25395            0    -7.479129            0            0            0            0            0            0 
10349000    762.78473     66673.18    577.14615   -337.62281    879.10552    541.48271     1283.184   -337.62281            0   -7.8545758            0            0            0            0            0            0 
10350000    774.98665     72506.91    599.03301   -288.98704    912.44345    623.45641    1442.9575   -288.98704            0   -7.2226157            0            0            0            0            0            0 
10351000    1076.6447    65603.731    610.38793   -304.49794     929.7392    625.24126    1655.3352   -304.49794            0   -7.9826183            0            0            0            0            0            0 
10352000    769.89132    69554.969    569.21029   -314.85566    867.01767    552.16201    1333.1304   -314.85566            0   -7.5291464            0            0            0            0            0            0 
10353000    778.62031    70487.268    608.06592   -317.56382    926.20232     608.6385    1409.0481   -317.56382            0   -7.4295622            0            0            0            0            0            0 
[...]
14939000    1031.2154    66398.664    597.18304   -301.31067    909.62558    608.31491     1606.899   -301.31067            0   -7.8870494            0            0            0            0            0            0 
14940000    820.29033     67525.69    608.49667   -326.43173    926.85844    600.42671    1408.2428   -326.43173            0    -7.755412            0            0            0            0            0            0 
14941000    735.48201      70710.5    566.87328    -306.7702    863.45794    556.68774    1315.1463    -306.7702            0   -7.4061072            0            0            0            0            0            0 
14942000    985.61692    65015.938    596.08597   -314.53608    907.95453    593.41846    1527.9713   -314.53608            0   -8.0547872            0            0            0            0            0            0 
14943000    905.53082    67778.047    550.27928   -308.12933    838.18206    530.05273    1425.1458   -308.12933            0   -7.7265364            0            0            0            0            0            0 
14944000    1020.4579    67132.427    587.96069   -302.60061    895.57815    592.97754    1592.0646   -302.60061            0   -7.8008434            0            0            0            0            0            0 
14945000    790.94748    66742.676    608.08491   -337.56997    926.23125    588.66128    1358.5486   -337.56997            0   -7.8463971            0            0            0            0            0            0 
14946000    929.81017    67914.728    625.68421   -305.98266     953.0384    647.05574    1568.0017   -305.98266            0   -7.7109865            0            0            0            0            0            0 
14947000    935.98486    69851.642    604.49448   -291.62414    920.76233    629.13819    1582.6396   -291.62414            0   -7.4971687            0            0            0            0            0            0 
14948000    800.76137    67110.294    606.34268   -328.88811    923.57749    594.68939    1378.4224   -328.88811            0   -7.8034161            0            0            0            0            0            0 
14949000    811.48568    67174.241    578.25031   -325.80723    880.78737    554.98015    1349.9662   -325.80723            0   -7.7959875            0            0            0            0            0            0 
14950000    937.89726    69511.647    588.71563   -286.00643    896.72808    610.72165    1561.5207   -286.00643            0   -7.5338389            0            0            0            0            0            0 
14951000    917.35008    65383.535    578.46693   -319.77956    881.11732    561.33776    1436.0786   -319.77956            0   -8.0095019            0            0            0            0            0            0 
14952000    919.88349    70274.984    573.89956   -288.20156    874.16033    585.95877    1528.7368   -288.20156            0   -7.4520052            0            0            0            0            0            0 
14953000    875.59554    66753.728    616.70623   -333.36786    939.36318    605.99533    1458.4179   -333.36786            0   -7.8450982            0            0            0            0            0            0 
14954000     880.4195    68974.129    579.11894   -299.18369    882.11045    582.92676    1468.5556   -299.18369            0   -7.5925503            0            0            0            0            0            0 
14955000    844.07741    67694.157    608.30118   -319.15619    926.56067    607.40448    1440.7198   -319.15619            0   -7.7361115            0            0            0            0            0            0 
14956000    886.81342    68933.442    596.73381   -306.50378    908.94132    602.43754     1493.972   -306.50378            0   -7.5970317            0            0            0            0            0            0 
14957000     801.7437    69041.321    589.35887   -320.88784    897.70786    576.82002    1384.0932   -320.88784            0   -7.5851612            0            0            0            0            0            0 
14958000    885.45388    67218.778    590.73774   -313.83279    899.80814    585.97536    1454.0008   -313.83279            0   -7.7908221            0            0            0            0            0            0 
14959000    847.41534    68780.603    615.82311   -308.60089    938.01802    629.41713    1479.4548   -308.60089            0   -7.6139132            0            0            0            0            0            0 
14960000    1077.8247    65770.333    588.62957   -300.40114    896.59699    596.19584    1630.0376   -300.40114            0   -7.9623977            0            0            0            0            0            0 
14961000    939.80696    67683.515    601.12151   -307.64342    915.62464    607.98122    1535.6596   -307.64342            0   -7.7373279            0            0            0            0            0            0 
14962000    762.31844    68205.244    599.38148   -330.40718    912.97424    582.56706    1340.8479   -330.40718            0   -7.6781419            0            0            0            0            0            0 
14963000    923.78378    67310.215    552.62168   -312.91042    841.74999    528.83957    1435.6723   -312.91042            0   -7.7802388            0            0            0            0            0            0 
14964000    755.20496    68119.876      618.525   -334.79105    942.13353    607.34248    1357.6073   -334.79105            0   -7.6877642            0            0            0            0            0            0 
14965000    927.89975    65881.337    614.79326   -327.11018    936.44937    609.33919    1500.8762   -327.11018            0   -7.9489817            0            0            0            0            0            0 
14966000    993.39713    67818.345     634.0274   -298.84857    965.74669    666.89812    1649.4285   -298.84857            0   -7.7219452            0            0            0            0            0            0 
14967000    892.20688    65885.398    572.98246   -323.70842    872.76341      549.055    1406.3507   -323.70842            0   -7.9484917            0            0            0            0            0            0 
14968000    801.08627    70413.378    588.43606   -300.88965    896.30224    595.41259    1418.0536   -300.88965            0   -7.4373587            0            0            0            0            0            0 
14969000     929.5345    69252.629    568.45587   -282.47848    865.86854    583.39005       1522.2   -282.47848            0   -7.5620168            0            0            0            0            0            0 
14970000    885.69334    68762.119     596.7079   -304.94129    908.90186    603.96057     1492.156   -304.94129            0   -7.6159599            0            0            0            0            0            0 
14971000    868.46282    67231.344    631.84858   -319.50142    962.42792     642.9265    1494.4545   -319.50142            0    -7.789366            0            0            0            0            0            0 
14972000    833.09715    68420.416    615.89077   -319.71849    938.12109     618.4026    1449.7016   -319.71849            0   -7.6539953            0            0            0            0            0            0 
14973000    963.89109    66389.885    619.43085    -313.8331    943.51331    629.68021    1562.9469    -313.8331            0   -7.8880924            0            0            0            0            0            0 
14974000    879.10638    69481.404    617.02385   -302.31332    939.84699    637.53367    1528.3453   -302.31332            0   -7.5371181            0            0            0            0            0            0 
14975000    907.02564    68555.342    617.86995   -314.66988    941.13577    626.46589    1533.3186   -314.66988            0   -7.6389313            0            0            0            0            0            0 
14976000    929.37012    67632.228    621.63968   -318.33934    946.87779    628.53845    1545.2196   -318.33934            0   -7.7431952            0            0            0            0            0            0 
14977000    691.70224    70327.309    602.54522    -324.9892    917.79322    592.80402    1302.2496    -324.9892            0   -7.4464607            0            0            0            0            0            0 
14978000    829.23375    64303.414    566.96404   -344.02667    863.59619    519.56952    1297.2244   -344.02667            0   -8.1440396            0            0            0            0            0            0 
14979000    879.69891    69542.932    603.42113   -305.28663     919.1274    613.84077    1506.0423   -305.28663            0   -7.5304496            0            0            0            0            0            0 
14980000    918.90712    67876.865    661.56866    -312.1283    1007.6974    695.56908    1605.2085    -312.1283            0   -7.7152878            0            0            0            0            0            0 
14981000     944.5946    68677.041    602.95685   -305.95128    918.42022    612.46894      1558.56   -305.95128            0   -7.6253948            0            0            0            0            0            0 
14982000    920.25993    68409.693    576.73655   -300.44138    878.48162    578.04024      1496.17   -300.44138            0    -7.655195            0            0            0            0            0            0 
14983000    995.43399    64448.562    614.90882   -326.00333    936.62539    610.62206    1546.2466   -326.00333            0   -8.1256979            0            0            0            0            0            0 
14984000    891.20918    67024.465    611.28197   -321.05576    931.10099    610.04523    1481.1871   -321.05576            0   -7.8134088            0            0            0            0            0            0 
14985000    859.25017    66484.765    618.87564   -332.95206    942.66762    609.71557    1442.8549   -332.95206            0   -7.8768353            0            0            0            0            0            0 
14986000    786.03185    68932.548    615.06643   -322.41251    936.86546    614.45295     1404.659   -322.41251            0   -7.5971302            0            0            0            0            0            0 
14987000    781.28667    66159.646    588.28523    -341.9834     896.0725    554.08911    1307.9296    -341.9834            0   -7.9155433            0            0            0            0            0            0 
14988000    918.14385    65105.292    585.25334   -325.95303    891.45433    565.50131    1437.2733   -325.95303            0   -8.0437324            0            0            0            0            0            0 
14989000    847.36343    69084.652    606.85976    -299.5255     924.3651     624.8396    1478.5827    -299.5255            0   -7.5804036            0            0            0            0            0            0 
14990000    1011.6185    65533.913    606.37948   -317.22769    923.63355    606.40586    1573.2551   -317.22769            0   -7.9911228            0            0            0            0            0            0 
14991000    805.38698    68192.191    582.18901   -313.54511    886.78677    573.24166    1374.2096   -313.54511            0   -7.6796117            0            0            0            0            0            0 
14992000    928.42872    65741.622    565.20378   -312.15574    860.91497    548.75923    1438.9127   -312.15574            0    -7.965875            0            0            0            0            0            0 
14993000    877.02736      70010.5    567.28136   -303.22794    864.07952    560.85159     1456.324   -303.22794            0   -7.4801572            0            0            0            0            0            0 
14994000     900.7847      68862.2    621.91931   -309.02835    947.30372    638.27538    1542.9195   -309.02835            0   -7.6048913            0            0            0            0            0            0 
14995000    731.09846    67719.523     597.4628   -344.17383    910.05171    565.87788    1287.9252   -344.17383            0   -7.7332138            0            0            0            0            0            0 
14996000    892.43766    68300.056    586.65563   -302.99633    893.59029    590.59397    1479.5389   -302.99633            0   -7.6674834            0            0            0            0            0            0 
14997000    909.54101    63413.409    635.26126   -354.92322     967.6261    612.70289    1453.8642   -354.92322            0   -8.2583408            0            0            0            0            0            0 
14998000    806.73723    70592.988    612.68625   -312.15413    933.23998    621.08585    1451.6431   -312.15413            0   -7.4184357            0            0            0            0            0            0 
14999000    984.42476    66278.022    633.87131   -314.15813    965.50893     651.3508    1602.8928   -314.15813            0   -7.9014058            0            0            0            0            0            0 
15000000    915.05155    68721.622    606.14914   -300.65268     923.2827    622.63002    1539.7261   -300.65268            0   -7.6204479            0            0            0            0            0            0 
Loop time of 1349.43 on 8 procs for 5000000 steps with 512 atoms

Pair  time (%) = 692.297 (51.3029)
Bond  time (%) = 0.475886 (0.0352657)
Neigh time (%) = 37.6488 (2.78998)
Comm  time (%) = 455.492 (33.7544)
Outpt time (%) = 0.36607 (0.0271277)
Other time (%) = 163.15 (12.0903)

Nlocal:    64 ave 73 max 59 min
Histogram: 3 0 1 1 1 0 1 0 0 1
Nghost:    1126.62 ave 1139 max 1109 min
Histogram: 1 0 0 0 1 2 1 1 0 2
Neighs:    4816.12 ave 5871 max 4351 min
Histogram: 3 0 2 1 0 1 0 0 0 1

Total # of neighbors = 38529
Ave neighs/atom = 75.252
Ave special neighs/atom = 0
Neighbor list builds = 112831
Dangerous builds = 0

Averages
Group Pressure(MPa) Volume(m3) Temperature(K) PE(J) KE(J) ET(J) ET^2(J) H(J) H^2(J^2) V^2(m6) V*H(m3*J) Hconf(J) Uext*Hconf(J^2) V*Hconf(m3*J) Uext(J)
Block1 89.735107464420778456 6.7818538270833167257e-26 600.37060028023938685 -2.1750631888999706559e-18 6.3535339395607365927e-18 4.1784707506607609294e-18 1.7522330920194427442e-35 1.025639003798149001e-17 1.0562233165029368847e-34 4.6030752512013171368e-51 6.9550166315069487808e-43 3.9028560984207749873e-18 -8.4508061527785998439e-36 2.6460753503521344572e-43 -2.1750631888999706559e-18
Block2 90.053725750915361914 6.7808258116818387813e-26 599.63208077898536885 -2.1726266171724261723e-18 6.3457184190904422412e-18 4.1730918019180156837e-18 1.7473492857701407785e-35 1.0270774864790337039e-17 1.0591277436802367922e-34 4.601732763677974227e-51 6.9629722524861933866e-43 3.9250564456999155978e-18 -8.4935674690131507729e-36 2.6601331876124714692e-43 -2.1726266171724261723e-18
Block3 89.827658369622795931 6.7843563393913816389e-26 599.3970043376450576 -2.1737499712404834265e-18 6.3432306787718031855e-18 4.1694807075313201441e-18 1.7442967058398836157e-35 1.0255254475929246372e-17 1.0558116391586445312e-34 4.6066593827330801587e-51 6.9564223621526002378e-43 3.9120237971574308608e-18 -8.4676170783115998178e-36 2.6530537240137179582e-43 -2.1737499712404834265e-18
Block4 89.971247324744950902 6.7817367827515735882e-26 600.56541138748968933 -2.1735684549955779007e-18 6.3555955644656478723e-18 4.1820271094700680457e-18 1.7550541761927988211e-35 1.0274827298568578585e-17 1.0596063501566762471e-34 4.6028689375873997447e-51 6.966469348277111413e-43 3.9192317341029361049e-18 -8.4887030264746849309e-36 2.6562758615781028473e-43 -2.1735684549955779007e-18
Block5 89.99583810456026356 6.7795970967775502266e-26 600.25166252859025917 -2.172962160402198984e-18 6.3522752586036057663e-18 4.1793130982013848267e-18 1.7525174191329185242e-35 1.0272915357501556981e-17 1.059600104209977945e-34 4.5999590137744163483e-51 6.9636990918972586185e-43 3.9206400988979743256e-18 -8.482000472634291724e-36 2.6572025289442207673e-43 -2.172962160402198984e-18
Ave_blocks 89.916715402852815942 6.7816739715371315034e-26 600.04335186258992962 -2.1735940785421313508e-18 6.3500707720984474397e-18 4.1764766935563099259e-18 1.7502901357910369502e-35 1.0266032406954242413e-17 1.058073830741694309e-34 4.6028590697948381166e-51 6.9609159372640226467e-43 3.9159616348558065294e-18 -8.4765388398424643488e-36 2.6545481305001295795e-43 -2.1735940785421313508e-18
Stdev_blocks 0.11740405987547725131 1.5661528966728444269e-29 0.44943075888812256125 8.3887381416940195643e-22 4.7561848943760539605e-21 4.5437844078908490753e-21 3.8987626848765829555e-38 8.4422166479912651482e-21 1.6929720993315645158e-37 2.1985495488106111777e-54 4.4228674315011824409e-46 7.7789306483442337218e-21 1.5553392510635127013e-38 4.8009374690532780317e-46 8.3887381416940195643e-22






Properties
Group rho(kg/m3) Cp(J/K) Cp_conf(J/K) Cp_id(J/K) Cp2(J/K) kT(1/Pa) aP(1/K) aP2(1/K) Cv(J/K) uJT(K/Pa) sos(m/s) Cv2(J/K) uJT2(K/Pa) sos2(m/s) CvNVT(J/K)
Block1 201.11365576344343253 8.6164366317127442985e-20 -8.1714963939283740221e-22 4.4646682214740713806e-20 4.3829532575347879413e-20 6.6194572450531983025e-09 -0.00021249690498878639035 -0.0002324777392468837362 8.5886618484638971121e-20 -8.8749700177818314446e-07 868.09874065496751427 4.3497096453064738957e-20 -1.7632896587952287156e-06 870.00413104105894035 1.2601906625439735386e-20
Block2 201.14414584552403653 8.540237356606206703e-20 -2.6988157550760542594e-21 4.4609773793365211559e-20 4.1910958038289158804e-20 6.7208473704439123468e-09 -0.0004341076561965106855 -0.00040972974083223643801 8.4262285745576192466e-20 -1.0006639727727568107e-06 865.86988996112529549 4.0895321320415756943e-20 -2.0154125833282542965e-06 870.68540940575826426 1.184423949344109956e-20
Block3 201.03947195385404711 8.2840831169166463945e-20 -1.5978909314885081432e-21 4.4598022700866675684e-20 4.3000131769378169046e-20 6.9646996103155717501e-09 -0.00032915832752950836566 -0.00029793100506089520213 8.2208229224321204579e-20 -9.8054136954512373043e-07 848.34541048026369481 4.2481866349844644065e-20 -1.8595058328897303173e-06 850.23942040521319541 1.1772895712258092552e-20
Block4 201.11712673470012192 7.8028475365924699131e-20 -4.0115718496137802002e-21 4.4656415863897526746e-20 4.0644844014283747298e-20 6.5328471767285743868e-09 -0.00048801373032620698564 -0.00048678934380039988288 7.6543692903898329699e-20 -1.1238661803254794818e-06 880.83807192340657366 3.9167502601500364508e-20 -2.1563300079031697501e-06 888.71807442800604804 1.2288074153769780894e-20
Block5 201.18060063868986731 8.5881990035060210137e-20 -1.0580727092329197715e-21 4.464073907594027112e-20 4.3582666366707349844e-20 6.5236870003667037596e-09 -0.00027386727942454850739 -0.00024714325544257260015 8.5414120857096835949e-20 -9.1917877605474449005e-07 875.27919152349227261 4.3201651723528210694e-20 -1.7863381092994198101e-06 876.73251721517169699 1.1763221915781086451e-20
Ave_blocks 201.11900018724230677 8.3663607290668176646e-20 -2.0367001769608198049e-21 4.4630326729762079783e-20 4.2593626552801258473e-20 6.6723076805815916129e-09 -0.00034752877969311220859 -0.00033481421687659763693 8.2862989443106313985e-20 -9.8234946009525748914e-07 867.6862609086510929 4.1848687689670740626e-20 -1.9161752384431605779e-06 871.27591049904151532 1.2054067580137958969e-20
Stdev_blocks 0.046440784543312955968 3.0538499709336573854e-21 1.1811929520968053738e-21 2.2461234334590683328e-23 1.1776841362860889626e-21 1.6259129701401936396e-10 0.00010122155949366657801 9.8212115728477108827e-05 3.4050214069489897029e-21 8.1673982199607901439e-08 11.028694995719359184 1.6153228318140769518e-21 1.4897346475703978186e-07 12.478010012642565485 3.3542908096620823888e-22






