LAMMPS (28 Oct 2012)
Scanning data file ...
Reading data file ...
  orthogonal box = (0 0 0) to (100 100 100)
  2 by 2 by 2 MPI processor grid
  512 atoms
Finding 1-2 1-3 1-4 neighbors ...
  0 = max # of 1-2 neighbors
  0 = max # of 1-3 neighbors
  0 = max # of 1-4 neighbors
  1 = max # of special neighbors
WARNING: Resetting reneighboring criteria during minimization (min.cpp:173)
Setting up minimization ...
Memory usage per processor = 4.05499 Mbytes
Step Temp E_pair E_mol TotEng Press 
       0       360.15    1409.7233            0    1958.3016    437.59323 
     701       360.15   -217.27527            0    331.30303    24.848329 
Loop time of 0.0527686 on 8 procs for 701 steps with 512 atoms

Minimization stats:
  Stopping criterion = energy tolerance
  Energy initial, next-to-last, final = 
         1409.72334813     -217.256630745     -217.275265106
  Force two-norm initial, final = 5034.49 0.337455
  Force max component initial, final = 2457.89 0.147661
  Final line search alpha, max atom move = 0.254892 0.0376377
  Iterations, force evaluations = 701 710

Pair  time (%) = 0.00892374 (16.9111)
Bond  time (%) = 6.16014e-05 (0.116739)
Neigh time (%) = 0.00314102 (5.95243)
Comm  time (%) = 0.0204698 (38.7915)
Outpt time (%) = 0 (0)
Other time (%) = 0.0201725 (38.2283)

Nlocal:    64 ave 74 max 52 min
Histogram: 1 0 0 1 1 2 0 2 0 1
Nghost:    235.125 ave 266 max 224 min
Histogram: 4 0 2 0 0 1 0 0 0 1
Neighs:    316.25 ave 371 max 226 min
Histogram: 1 0 0 1 1 1 0 1 0 3

Total # of neighbors = 2530
Ave neighs/atom = 4.94141
Ave special neighs/atom = 0
Neighbor list builds = 60
Dangerous builds = 0
Setting up run ...
Memory usage per processor = 3.36354 Mbytes
Step Temp E_pair E_mol TotEng Press Volume 
     701       360.15   -217.27527            0    331.30303    24.848329      1000000 
 5000701    391.15542   -509.93208            0    85.873491    1029.6859    45792.798 
Loop time of 1682.78 on 8 procs for 5000000 steps with 512 atoms

Pair  time (%) = 998.223 (59.3199)
Bond  time (%) = 0.461034 (0.0273972)
Neigh time (%) = 36.2006 (2.15124)
Comm  time (%) = 487.354 (28.9613)
Outpt time (%) = 4.23789e-05 (2.51839e-06)
Other time (%) = 160.54 (9.54018)

Nlocal:    64 ave 67 max 60 min
Histogram: 1 1 1 0 0 0 0 2 2 1
Nghost:    1479 ave 1506 max 1455 min
Histogram: 1 1 0 2 1 1 0 0 1 1
Neighs:    7197.88 ave 7438 max 6793 min
Histogram: 1 0 0 0 2 1 0 0 2 2

Total # of neighbors = 57583
Ave neighs/atom = 112.467
Ave special neighs/atom = 0
Neighbor list builds = 87426
Dangerous builds = 15
Setting up run ...
Memory usage per processor = 3.96647 Mbytes
Step Press Volume Temp PotEng KinEng TotEng Enthalpy E_vdwl E_coul E_tail E_long E_bond E_angle E_dihed E_impro E_mol 
10000000    1029.6859    45792.798    391.15542   -509.93208    595.80557    85.873491    773.53996   -509.93208            0   -11.436068            0            0            0            0            0            0 
10001000    952.65606    45780.084     366.5507   -514.98849     558.3278     43.33931    679.38544   -514.98849            0   -11.439244            0            0            0            0            0            0 
10002000    912.75566    45143.525    363.54113   -534.93239    553.74364     18.81125    619.74403   -534.93239            0   -11.600546            0            0            0            0            0            0 
10003000     851.9872    48361.668    353.02334   -489.51885    537.72301    48.204163    649.11527   -489.51885            0   -10.828608            0            0            0            0            0            0 
10004000    923.17726    45027.633     377.3757   -534.83414    574.81638     39.98224    646.21598   -534.83414            0   -11.630404            0            0            0            0            0            0 
10005000    918.51846    45529.673    379.11963   -534.48738    577.47272    42.985339    652.88489   -534.48738            0   -11.502159            0            0            0            0            0            0 
10006000    881.50379    46207.587    368.87369   -520.08505    561.86617    41.781121    635.81794   -520.08505            0    -11.33341            0            0            0            0            0            0 
10007000    788.16998    46800.442    337.83423   -513.77826    514.58704   0.80878309    538.76351   -513.77826            0   -11.189842            0            0            0            0            0            0 
10008000    662.21892    47679.683    358.26556   -522.07933    545.70793    23.628602    484.10867   -522.07933            0   -10.983495            0            0            0            0            0            0 
10009000    891.93681    45753.188    340.69648   -526.56884    518.94681   -7.6220219     587.5347   -526.56884            0   -11.445968            0            0            0            0            0            0 
10010000    1012.8075    45615.442    348.54987    -512.0609    530.90904    18.848145    692.62281    -512.0609            0   -11.480532            0            0            0            0            0            0 
10011000    901.70141    46611.776    333.86554    -512.3097    508.54197   -3.7677339    609.19531    -512.3097            0   -11.235134            0            0            0            0            0            0 
10012000     781.6817    46386.877    372.78201   -530.29871    567.81929    37.520586    566.33218   -530.29871            0   -11.289606            0            0            0            0            0            0 
10013000    743.49229    47109.817    340.69175   -516.65461     518.9396     2.284995    513.10016   -516.65461            0   -11.116357            0            0            0            0            0            0 
10014000    814.63743     46387.93    357.11777   -520.94447    543.95962    23.015143    574.13396   -520.94447            0   -11.289349            0            0            0            0            0            0 
10015000    883.25906    45929.385    351.27199   -519.80891    535.05536    15.246458    606.88249   -519.80891            0   -11.402059            0            0            0            0            0            0 
10016000    969.82428    45740.023    356.49308   -515.41232    543.00809    27.595771    674.53773   -515.41232            0   -11.449263            0            0            0            0            0            0 
10017000     971.0099    44172.074    358.88092   -540.74763    546.64525     5.897616    631.42646   -540.74763            0    -11.85567            0            0            0            0            0            0 
10018000    860.95621    45741.258    351.20875   -527.34892    534.95903    7.6101146    581.94481   -527.34892            0   -11.448954            0            0            0            0            0            0 
10019000    838.50887    46901.995    358.83167   -507.98293    546.57022    38.587289    612.14202   -507.98293            0   -11.165613            0            0            0            0            0            0 
10020000    871.08785    45738.746    348.33047   -520.80063    530.57486    9.7742265    590.83572   -520.80063            0   -11.449583            0            0            0            0            0            0 
10021000    887.63968    46375.023    376.14228   -514.84454    572.93764    58.093103    658.43234   -514.84454            0   -11.292491            0            0            0            0            0            0 
10022000    814.88899    46131.305    342.24033   -525.02128     521.2984   -3.7228815    544.51631   -525.02128            0   -11.352151            0            0            0            0            0            0 
10023000    732.20684    45667.857    354.15343   -540.55833    539.44435   -1.1139802    486.54958   -540.55833            0   -11.467355            0            0            0            0            0            0 
10024000    764.07707    47517.397    378.49075    -515.3372    576.51482    61.177611    590.67729    -515.3372            0   -11.021007            0            0            0            0            0            0 
10025000    871.52331    45669.456    323.83376   -527.76522    493.26162   -34.503597    545.96768   -527.76522            0   -11.466954            0            0            0            0            0            0 
10026000    964.75126    46362.362     359.4046   -504.43035     547.4429    43.012555    695.32669   -504.43035            0   -11.295575            0            0            0            0            0            0 
10027000    902.69133    46454.974    356.45282   -512.62987    542.94677    30.316897     641.8886   -512.62987            0   -11.273056            0            0            0            0            0            0 
10028000    938.16068    45493.845     342.9132   -518.27435    522.32331     4.048966    626.50081   -518.27435            0   -11.511218            0            0            0            0            0            0 
10029000    783.33607     46490.78    357.70001   -522.10243    544.84649    22.744058    553.86184   -522.10243            0   -11.264374            0            0            0            0            0            0 
10030000    640.92736     48213.06    369.94856    -513.1521    563.50341    50.351306     501.0117    -513.1521            0   -10.861985            0            0            0            0            0            0 
10031000    784.49088    45392.312     344.0546   -539.31702    524.06189    -15.25513    504.07808   -539.31702            0   -11.536966            0            0            0            0            0            0 
10032000    984.95654    45415.987    363.01459   -516.10004    552.94163    36.841589     689.2232   -516.10004            0   -11.530952            0            0            0            0            0            0 
10033000    867.91575    47095.024    380.65874   -508.51063    579.81709    71.306456     667.4193   -508.51063            0   -11.119849            0            0            0            0            0            0 
10034000    892.64521    44790.388    373.52062   -545.71534    568.94434    23.228995    606.32436   -545.71534            0   -11.692007            0            0            0            0            0            0 
10035000    935.15377     47013.83    349.19591   -501.92581     531.8931    29.967285    671.15404   -501.92581            0   -11.139053            0            0            0            0            0            0 
10036000    826.96136     45694.52    345.79822    -528.5942    526.71774   -1.8764504    549.21697    -528.5942            0   -11.460664            0            0            0            0            0            0 
10037000    823.45357    46395.398    370.89916   -519.80105    564.95135    45.150298     602.3231   -519.80105            0   -11.287532            0            0            0            0            0            0 
10038000    998.90993    44335.904    354.42294   -535.47564    539.85487     4.379232    650.26809   -535.47564            0   -11.811861            0            0            0            0            0            0 
10039000    819.87627    46573.731    344.26321   -523.18287    524.37963    1.1967613     558.0814   -523.18287            0   -11.244312            0            0            0            0            0            0 
10040000    1017.8744     44499.99    370.32312   -534.16138    564.07392    29.912546    690.49951   -534.16138            0   -11.768307            0            0            0            0            0            0 
10041000    890.81259    47121.336    375.64064   -503.97289    572.17355    68.200659    680.38163   -503.97289            0    -11.11364            0            0            0            0            0            0 
10042000    866.13721    46178.866     359.8279   -521.19208    548.08767    26.895594    610.21423   -521.19208            0   -11.340459            0            0            0            0            0            0 
10043000    796.52197    45646.909    331.51328   -534.26716    504.95902   -29.308145    500.94716   -534.26716            0   -11.472618            0            0            0            0            0            0 
10044000    913.87665    46437.776     350.6526   -512.61652    534.11192    21.495392    640.41592   -512.61652            0   -11.277231            0            0            0            0            0            0 
10045000    707.83323    46251.638     354.8559   -531.93307    540.51436    8.5812865    486.03795   -531.93307            0   -11.322616            0            0            0            0            0            0 
10046000    793.75026    45305.587    345.65826   -543.21712    526.50456   -16.712565    507.74643   -543.21712            0    -11.55905            0            0            0            0            0            0 
10047000     775.1208     46894.21    347.64341   -519.88321    529.52833    9.6451195    539.75329   -519.88321            0   -11.167467            0            0            0            0            0            0 
10048000    946.88824    43980.284    380.86302    -549.3121    580.12825    30.816152    638.15721    -549.3121            0   -11.907371            0            0            0            0            0            0 
10049000    1040.2657    46932.237    339.95352   -487.46234    517.81514    30.352793    742.37153   -487.46234            0   -11.158419            0            0            0            0            0            0 
10050000    890.26687    45437.782    370.44687   -533.43598    564.26243    30.826446    620.77376   -533.43598            0    -11.52542            0            0            0            0            0            0 
10051000     858.8723    46671.693    360.85734   -508.37803    549.65572    41.277689    625.87665   -508.37803            0    -11.22071            0            0            0            0            0            0 
10052000    830.92211    46314.255    365.02935   -524.57689    556.01049    31.433593    592.67653   -524.57689            0   -11.307308            0            0            0            0            0            0 
10053000    864.78818    46934.178    347.34851   -513.37434    529.07915    15.704806    607.64094   -513.37434            0   -11.157957            0            0            0            0            0            0 
10054000    824.14965    47157.473    360.29196   -510.61912    548.79454     38.17542    604.97888   -510.61912            0   -11.105123            0            0            0            0            0            0 
10055000     781.8475    46378.852    368.03498   -530.98776    560.58865    29.600892    558.43315   -530.98776            0   -11.291559            0            0            0            0            0            0 
10056000    880.81172    45204.268    375.49283   -544.18834     571.9484    27.760058    608.44213   -544.18834            0   -11.584958            0            0            0            0            0            0 
10057000    845.63379    46875.095    359.48416   -506.55509    547.56409       41.009    619.10554   -506.55509            0   -11.172021            0            0            0            0            0            0 
10058000    896.41799    44950.649    344.22999   -534.55354    524.32904   -10.224501    577.43047   -534.55354            0   -11.650322            0            0            0            0            0            0 
10059000    749.42847    46379.317    352.48009   -529.21352    536.89554    7.6820152    514.59152   -529.21352            0   -11.291446            0            0            0            0            0            0 
10060000    700.27433    46316.625    346.04526   -535.57057    527.09404    -8.476525    464.54511   -535.57057            0   -11.306729            0            0            0            0            0            0 
10061000    779.68493    46316.382    365.84095   -529.85197    557.24672    27.394748    554.05392   -529.85197            0   -11.306789            0            0            0            0            0            0 
10062000    923.85757    47161.731    353.93526   -497.83329    539.11205    41.278757    676.71305   -497.83329            0    -11.10412            0            0            0            0            0            0 
10063000    800.15597    47147.837    362.99247    -512.0716    552.90793    40.836325    591.02584    -512.0716            0   -11.107393            0            0            0            0            0            0 
10064000    763.43609    47277.848    347.14465    -515.2516    528.76862    13.517023    539.90538    -515.2516            0   -11.076848            0            0            0            0            0            0 
10065000    932.92482    44931.095    358.42719   -532.20499    545.95413    13.749141    625.07046   -532.20499            0   -11.655392            0            0            0            0            0            0 
10066000    820.28617     46357.31    377.05529   -527.16872    574.32833    47.159612    601.73361   -527.16872            0   -11.296806            0            0            0            0            0            0 
10067000    817.97258     46368.98    332.73396   -518.39846    506.81836     -11.5801    541.56895   -518.39846            0   -11.293963            0            0            0            0            0            0 
10068000    867.06232    45430.313    344.58131   -529.27213    524.86416   -4.4079664    570.06808   -529.27213            0   -11.527315            0            0            0            0            0            0 
10069000    986.27907    46270.699    346.83259   -499.54947     528.2933    28.743831    694.29549   -499.54947            0   -11.317952            0            0            0            0            0            0 
10070000    705.36219    47797.372    366.48659   -515.13366    558.23016    43.096494    534.78729   -515.13366            0   -10.956451            0            0            0            0            0            0 
10071000    851.87098    46126.536    354.52185   -516.67033    540.00553    23.335206    596.39582   -516.67033            0   -11.353325            0            0            0            0            0            0 
10072000    962.34778    45930.748    354.06802   -521.74308    539.31427    17.571191    662.20258   -521.74308            0    -11.40172            0            0            0            0            0            0 
10073000     745.6632    46259.374    377.99668   -530.06867    575.76226    45.693591    548.75193   -530.06867            0   -11.320723            0            0            0            0            0            0 
10074000    1065.5476    45404.798    365.99768   -508.37428    557.48545    49.111171    754.69808   -508.37428            0   -11.533793            0            0            0            0            0            0 
10075000    1080.1235    47510.522    348.96778   -469.27389    531.54561    62.271713    810.68089   -469.27389            0   -11.022601            0            0            0            0            0            0 
10076000    704.16031    46133.125    353.89328   -537.24782     539.0481    1.8002837    475.56237   -537.24782            0   -11.351703            0            0            0            0            0            0 
10077000    700.22209    46213.966    327.62165   -534.08554    499.03132   -35.054224    436.88376   -534.08554            0   -11.331846            0            0            0            0            0            0 
10078000     788.3459    46326.925     334.8273   -523.99686    510.00692   -13.989941    518.64074   -523.99686            0   -11.304216            0            0            0            0            0            0 
10079000     920.2345    46721.218    362.81456    -507.5335    552.63694    45.103433    672.13377    -507.5335            0   -11.208816            0            0            0            0            0            0 
10080000    675.71937    48222.777    358.22743   -505.00468    545.64985    40.645165    515.86491   -505.00468            0   -10.859796            0            0            0            0            0            0 
10081000    963.69931    45069.371    361.47161    -525.1132    550.59136    25.478165    658.90862    -525.1132            0   -11.619633            0            0            0            0            0            0 
10082000    950.17187    45820.567    357.22917   -513.60399    544.12931    30.525311    665.47384   -513.60399            0   -11.429137            0            0            0            0            0            0 
10083000    979.65622    44998.979    350.97409   -530.01152     534.6016    4.5900756    647.50314   -530.01152            0   -11.637809            0            0            0            0            0            0 
10084000    873.62741    46041.285     370.9397   -524.35772     565.0131    40.655378    627.26553   -524.35772            0   -11.374347            0            0            0            0            0            0 
10085000    864.30189    46671.372    366.97256   -516.18331    558.97038    42.787073     631.0777   -516.18331            0   -11.220787            0            0            0            0            0            0 
10086000    809.00854    45929.094    352.35121   -529.91087    536.69923     6.788367    548.68553   -529.91087            0   -11.402131            0            0            0            0            0            0 
10087000    1041.4495    46999.407    378.41239   -490.87026    576.39546    85.525192    799.37438   -490.87026            0   -11.142471            0            0            0            0            0            0 
10088000    1118.4234    44753.581    359.57125   -519.36063    547.69675    28.336123    758.31437   -519.36063            0   -11.701623            0            0            0            0            0            0 
10089000    787.56138     48789.71    376.16828   -490.82338    572.97725    82.153867     642.5415   -490.82338            0   -10.733606            0            0            0            0            0            0 
10090000    1032.2895    45076.201    377.36375   -524.01296    574.79817    50.785214    729.40218   -524.01296            0   -11.617872            0            0            0            0            0            0 
10091000    938.84545    47478.606    357.52069   -495.97102    544.57334    48.602317    698.68404   -495.97102            0   -11.030011            0            0            0            0            0            0 
10092000    1012.1268    46662.773    400.86276      -503.73    610.59172    106.86172    795.64307      -503.73            0   -11.222855            0            0            0            0            0            0 
10093000    887.03426    45216.514    372.47608   -537.24913    567.35331    30.104185    615.04693   -537.24913            0    -11.58182            0            0            0            0            0            0 
10094000    825.17826    47907.107    348.45208   -498.93792    530.76009    31.822171    608.35443   -498.93792            0   -10.931354            0            0            0            0            0            0 
10095000    746.58975    46496.199    335.01249   -524.11931    510.28899   -13.830318    492.43172   -524.11931            0   -11.263062            0            0            0            0            0            0 
10096000    693.44964    48019.543    335.18541   -505.59402    510.55238    4.9583625    490.59209   -505.59402            0   -10.905759            0            0            0            0            0            0 
10097000     837.4519    46812.779    350.02749   -509.66849    533.15974    23.491252    595.23337   -509.66849            0   -11.186893            0            0            0            0            0            0 
10098000    871.13818    46900.274    375.09361   -515.44535    571.34031    55.894963    651.74685   -515.44535            0   -11.166023            0            0            0            0            0            0 
10099000    901.71099    46147.779     352.2854   -515.97512    536.59898    20.623865    627.49161   -515.97512            0   -11.348099            0            0            0            0            0            0 
10100000    864.82917    45262.405    369.04359   -537.08164    562.12497     25.04333    595.92203   -537.08164            0   -11.570078            0            0            0            0            0            0 
10101000    671.68703     49902.66    354.16504   -494.29238    539.46203    45.169651    534.00944   -494.29238            0   -10.494221            0            0            0            0            0            0 
10102000    992.14859      44958.6    333.57791   -523.21158    508.10385   -15.107732    635.41936   -523.21158            0   -11.648262            0            0            0            0            0            0 
10103000    851.04541    46147.612    362.29175   -516.55983     551.8406     35.28077     608.0476   -516.55983            0    -11.34814            0            0            0            0            0            0 
10104000    851.88528    47610.866    351.89745   -510.01176    536.00806      25.9963    617.50766   -510.01176            0    -10.99937            0            0            0            0            0            0 
10105000    822.89277    46542.809     346.0379   -519.02032    527.08284    8.0625174    566.62496   -519.02032            0   -11.251782            0            0            0            0            0            0 
10106000    854.92738    46592.275    385.29959   -522.33192    586.88599    64.554074    645.47769   -522.33192            0   -11.239836            0            0            0            0            0            0 
10107000    1002.8804    46174.915    372.10633   -505.52053    566.79011    61.269575    736.62304   -505.52053            0    -11.34143            0            0            0            0            0            0 
10108000    1118.6971     45056.83    369.29206   -509.94908    562.50342    52.554341    787.65874   -509.94908            0   -11.622867            0            0            0            0            0            0 
10109000    761.67349    46976.121    344.62044   -518.56957    524.92376    6.3541897    528.17558   -518.56957            0   -11.147995            0            0            0            0            0            0 
10110000    754.70722    45194.409     351.1251   -547.48932    534.83162   -12.657708    484.78046   -547.48932            0   -11.587485            0            0            0            0            0            0 
10111000     918.5801    46923.827     380.9991   -501.28365    580.33552    79.051878    707.66921   -501.28365            0   -11.160418            0            0            0            0            0            0 
10112000    970.56031    44312.496    372.39096   -540.72077    567.22365    26.502885    653.72971   -540.72077            0   -11.818101            0            0            0            0            0            0 
10113000    880.28329    45771.914    350.17043   -529.79024    533.37748    3.5872412    591.20839   -529.79024            0   -11.441286            0            0            0            0            0            0 
10114000    799.22672    47173.199    358.62375   -509.81947    546.25351    36.434045    586.28023   -509.81947            0   -11.101421            0            0            0            0            0            0 
10115000    1000.7462    46507.526     377.4797   -504.45511    574.97478    70.519679    749.29034   -504.45511            0   -11.260318            0            0            0            0            0            0 
10116000    851.39306    46062.053    375.33273   -529.75874    571.70454    41.945792    613.88422   -529.75874            0   -11.369219            0            0            0            0            0            0 
10117000    923.71033    47073.561    359.73415   -503.82762    547.94487    44.117248    678.26249   -503.82762            0   -11.124919            0            0            0            0            0            0 
10118000    691.65299    46629.277    348.20205   -528.66577    530.37925    1.7134723     472.0653   -528.66577            0   -11.230917            0            0            0            0            0            0 
10119000    835.68888    45753.899    353.91573   -524.89122    539.08229    14.191074    571.82428   -524.89122            0    -11.44579            0            0            0            0            0            0 
10120000    919.12638    46178.564    373.66473   -512.66887    569.16385    56.494983    675.49625   -512.66887            0   -11.340533            0            0            0            0            0            0 
10121000    926.20816    46202.237    358.16651   -509.89929    545.55706    35.657762    659.74815   -509.89929            0   -11.334723            0            0            0            0            0            0 
10122000    891.55282    47216.805    351.19603   -503.07243    534.93966    31.867235    645.79823   -503.07243            0   -11.091169            0            0            0            0            0            0 
10123000    938.34139    45322.228     361.3649   -522.07351    550.42883    28.355318    648.57853   -522.07351            0   -11.554806            0            0            0            0            0            0 
10124000       836.05    46566.502    379.06056   -521.96343    577.38275    55.419323     623.2015   -521.96343            0   -11.246057            0            0            0            0            0            0 
10125000    862.29731    46309.782    360.10457   -525.96958    548.50909    22.539515    604.91845   -525.96958            0     -11.3084            0            0            0            0            0            0 
10126000    1011.7494    46350.305     363.2501   -509.64276    553.30036    43.657596    727.57151   -509.64276            0   -11.298514            0            0            0            0            0            0 
10127000    695.11567    47948.672    345.25881    -507.0279    525.89612    18.868221    504.95023    -507.0279            0   -10.921878            0            0            0            0            0            0 
10128000    866.03452    45157.022    364.46325   -538.59774    555.14821    16.550474    586.89383   -538.59774            0   -11.597079            0            0            0            0            0            0 
10129000    883.54694    47338.791    358.22623   -505.20925    545.64802     40.43877    650.42871   -505.20925            0   -11.062588            0            0            0            0            0            0 
10130000    1078.4096    44820.607     339.4459    -522.1556    517.04194   -5.1136657    699.80234    -522.1556            0   -11.684124            0            0            0            0            0            0 
10131000    749.67361      47202.9     346.6541   -522.53728    528.02142    5.4841463    521.56387   -522.53728            0   -11.094436            0            0            0            0            0            0 
10132000    851.58338    46911.274    366.30694   -507.91289    557.95651    50.043625    632.65678   -507.91289            0   -11.163405            0            0            0            0            0            0 
10133000    1048.5729    45198.429    359.21071   -509.08392    547.14758    38.063656    729.25434   -509.08392            0   -11.586455            0            0            0            0            0            0 
10134000    775.35199    46400.682    357.51077    -526.3012    544.55824    18.257039    542.94265    -526.3012            0   -11.286247            0            0            0            0            0            0 
10135000     824.9311    45664.518    359.09783   -532.27466    546.97564    14.700978    564.08047   -532.27466            0   -11.468194            0            0            0            0            0            0 
10136000    928.90678    47128.897    379.92703   -505.71422    578.70254    72.988323    711.45068   -505.71422            0   -11.111857            0            0            0            0            0            0 
10137000    1119.0183    46338.695    359.61885   -497.17553    547.76926    50.593727    806.82891   -497.17553            0   -11.301344            0            0            0            0            0            0 
10138000     842.9917    46284.357    366.64117   -525.81544    558.46561     32.65017    601.67788   -525.81544            0   -11.314612            0            0            0            0            0            0 
10139000    859.43351     48236.62    360.47261   -488.66482     549.0697    60.404876    665.00056   -488.66482            0    -10.85668            0            0            0            0            0            0 
10140000    890.61618    45873.277    379.37707    -532.5777    577.86485    45.287154    641.12246    -532.5777            0   -11.416005            0            0            0            0            0            0 
10141000    775.41179    45874.731    346.18857   -537.55052    527.31234   -10.238186    508.54014   -537.55052            0   -11.415643            0            0            0            0            0            0 
10142000    952.06902    46351.167    363.50366    -511.9483    553.68657     41.73827    685.32192    -511.9483            0   -11.298303            0            0            0            0            0            0 
10143000      829.855    45377.705    335.15356   -534.73373    510.50386   -24.229865    524.95762   -534.73373            0    -11.54068            0            0            0            0            0            0 
10144000    873.49572    46001.028    361.25994   -522.47785    550.26895    27.791104    613.79999   -522.47785            0   -11.384301            0            0            0            0            0            0 
10145000    838.30793    45680.023    378.93137   -531.64168    577.18596    45.544287    604.02191   -531.64168            0   -11.464301            0            0            0            0            0            0 
10146000    999.72936    46042.765    358.54158   -510.68255    546.12836    35.445811    706.75059   -510.68255            0   -11.373981            0            0            0            0            0            0 
10147000    1064.5478    46086.635     355.5901   -501.12272    541.63269     40.50997    756.02055   -501.12272            0   -11.363154            0            0            0            0            0            0 
10148000    937.19878    44757.261    332.68846   -534.24811    506.74905   -27.499067    584.24689   -534.24811            0   -11.700661            0            0            0            0            0            0 
10149000    829.12664    46922.383     367.3231   -513.02702    559.50432    46.477303    613.86096   -513.02702            0   -11.160762            0            0            0            0            0            0 
10150000    794.95759    45381.099    364.67081   -547.34855    555.46437    8.1158139    534.24799   -547.34855            0   -11.539816            0            0            0            0            0            0 
10151000    1101.8664    45492.987    344.83797   -499.84139    525.25511     25.41372    756.46741   -499.84139            0   -11.511435            0            0            0            0            0            0 
10152000    911.76651    43580.956    361.48333   -560.29101    550.60921   -9.6818032    569.82198   -560.29101            0   -12.016477            0            0            0            0            0            0 
10153000     916.3071    46942.885    352.26532    -499.5336     536.5684    37.034801    664.35131    -499.5336            0   -11.155888            0            0            0            0            0            0 
10154000      856.421     46151.45    360.96525   -522.28646    549.82009    27.533623    603.96625   -522.28646            0   -11.347196            0            0            0            0            0            0 
10155000     905.5124    45379.836    373.80616    -529.8325    569.37928    39.546775    638.83151    -529.8325            0   -11.540137            0            0            0            0            0            0 
10156000    976.62375    46911.839    376.11689   -496.44774    572.89897    76.451237    744.61917   -496.44774            0    -11.16327            0            0            0            0            0            0 
10157000    929.88003    44823.137    350.12165   -535.01011    533.30317     -1.70694    606.15515   -535.01011            0   -11.683465            0            0            0            0            0            0 
10158000    755.96705    48286.517    346.86318   -500.24502     528.3399    28.094875    560.45392   -500.24502            0   -10.845461            0            0            0            0            0            0 
10159000     1017.265     45171.19    356.84932   -519.48012    543.55072    24.070605    694.21983   -519.48012            0   -11.593441            0            0            0            0            0            0 
10160000    951.19936    44533.774    340.29767   -544.75701    518.33935   -26.417658    591.36674   -544.75701            0   -11.759379            0            0            0            0            0            0 
10161000    820.81657    47059.048    358.89394   -516.78916    546.66507    29.875911    593.20884   -516.78916            0    -11.12835            0            0            0            0            0            0 
10162000     977.4111    46546.544    361.25898   -502.26713    550.26748     48.00035    711.49985   -502.26713            0   -11.250879            0            0            0            0            0            0 
10163000    908.73764     46862.96    356.58698   -505.59037    543.15112    37.560753    658.63586   -505.59037            0   -11.174914            0            0            0            0            0            0 
10164000    807.22174    45611.381    371.70079   -542.37539    566.17238    23.796988    560.75701   -542.37539            0   -11.481554            0            0            0            0            0            0 
10165000    909.82259     45817.75    358.65043   -524.75554    546.29416    21.538616    629.48651   -524.75554            0    -11.42984            0            0            0            0            0            0 
10166000    969.84768    45065.088    347.41873   -526.28546     529.1861    2.9006383    640.31177   -526.28546            0   -11.620737            0            0            0            0            0            0 
10167000    668.81769    47713.437     344.0021    -520.4073    523.98191    3.5746127    468.97243    -520.4073            0   -10.975725            0            0            0            0            0            0 
10168000    838.70458    45439.952     350.8802   -532.11807     534.4586    2.3405267    558.14593   -532.11807            0    -11.52487            0            0            0            0            0            0 
10169000    817.06693    47397.911    384.28055   -513.69416    585.33381    71.639647    636.43709   -513.69416            0    -11.04879            0            0            0            0            0            0 
10170000    790.29371    45206.276    353.65163   -547.43907    538.68002   -8.7590498    512.27145   -547.43907            0   -11.584443            0            0            0            0            0            0 
10171000    883.94073     46956.91    371.99282   -509.11596    566.61721    57.501249     662.8401   -509.11596            0   -11.152555            0            0            0            0            0            0 
10172000    711.94185    46793.811    358.97254    -531.3064     546.7848      15.4784    501.33581    -531.3064            0   -11.191427            0            0            0            0            0            0 
10173000    905.91677    44661.514    363.08278   -541.76001    553.04548     11.28547    601.34745   -541.76001            0   -11.725745            0            0            0            0            0            0 
10174000    831.65714    46686.254    352.82519   -521.49753    537.42119    15.923664      582.175   -521.49753            0   -11.217211            0            0            0            0            0            0 
10175000    812.07958    45920.083    353.10408   -530.53146    537.84599    7.3145221    551.16203   -530.53146            0   -11.404369            0            0            0            0            0            0 
10176000    900.67525    46416.446    383.38279   -513.73673    583.96634    70.229604    679.92932   -513.73673            0   -11.282414            0            0            0            0            0            0 
10177000    900.75797    45998.965    380.37983    -527.1095    579.39225    52.282758    656.55418    -527.1095            0   -11.384812            0            0            0            0            0            0 
10178000    908.36683    46800.748    352.81084   -504.42521    537.39934    32.974125    652.97164   -504.42521            0   -11.189769            0            0            0            0            0            0 
10179000     880.5272    44830.027    359.21608   -543.22267    547.15575      3.93308    579.62172   -543.22267            0   -11.681669            0            0            0            0            0            0 
10180000    796.62908    46749.748    337.52434   -520.21427    514.11502   -6.0992495    537.04017   -520.21427            0   -11.201976            0            0            0            0            0            0 
10181000    780.46824    47231.189     340.4669   -512.43311    518.59712    6.1640176    543.76493   -512.43311            0   -11.087791            0            0            0            0            0            0 
10182000    905.87101    46107.517    371.53181    -518.4921      565.915    47.422895    656.55849    -518.4921            0   -11.358008            0            0            0            0            0            0 
10183000    845.09911    45890.376    368.28677   -527.62172    560.97218    33.350462    598.94493   -527.62172            0   -11.411751            0            0            0            0            0            0 
10184000    721.88673    47975.922     366.0886   -515.65028    557.62393    41.973649    547.06308   -515.65028            0   -10.915674            0            0            0            0            0            0 
10185000     874.6679    46247.743    345.85571   -515.82563    526.80532    10.979682     600.9221   -515.82563            0    -11.32357            0            0            0            0            0            0 
10186000    986.39312    46556.639    377.32409   -501.03728    574.73777    73.700484     743.4425   -501.03728            0    -11.24844            0            0            0            0            0            0 
10187000     850.1728    46620.484    362.82647   -510.79123    552.65508    41.863858     619.9065   -510.79123            0   -11.233035            0            0            0            0            0            0 
10188000    649.57751    45851.592    349.10554   -548.49799    531.75543   -16.742559    417.62891   -548.49799            0   -11.421404            0            0            0            0            0            0 
10189000    917.78722    47465.855     382.5486   -502.39443     582.6957    80.301278    715.63105   -502.39443            0   -11.032974            0            0            0            0            0            0 
10190000    812.50449    46045.234    352.82374   -527.71246    537.41898    9.7065243    555.32158   -527.71246            0   -11.373371            0            0            0            0            0            0 
10191000    942.26195    46360.203    367.73398    -507.4569    560.13016     52.67326    689.75165    -507.4569            0   -11.296101            0            0            0            0            0            0 
10192000    853.05847     46649.89    376.33004   -513.97494    573.22364    59.248703    639.61918   -513.97494            0   -11.225955            0            0            0            0            0            0 
10193000    924.34821    45427.276    351.10561   -526.76618    534.80193     8.035752    620.42589   -526.76618            0   -11.528086            0            0            0            0            0            0 
10194000    927.09169    45008.624    356.08513   -533.65618    542.38671    8.7305233    617.27778   -533.65618            0   -11.635316            0            0            0            0            0            0 
10195000    869.36531    46635.586    359.34799   -516.24007    547.35668    31.116606    622.39993   -516.24007            0   -11.229398            0            0            0            0            0            0 
10196000    958.54807    45890.555      354.573   -521.73756    540.08344    18.345883    659.87016   -521.73756            0   -11.411707            0            0            0            0            0            0 
10197000    940.52445    45179.314    355.14332   -531.42912    540.95215    9.5230374    629.22891   -531.42912            0   -11.591357            0            0            0            0            0            0 
10198000    918.24968    44927.196    336.32794   -532.14698    512.29268   -19.854296    581.79856   -532.14698            0   -11.656404            0            0            0            0            0            0 
10199000    828.29262    46329.345     352.9631   -517.69988    537.63125    19.931373    579.58052   -517.69988            0   -11.303625            0            0            0            0            0            0 
10200000    983.03422    44915.149    356.69789   -531.50105    543.32006    11.819008     655.7471   -531.50105            0    -11.65953            0            0            0            0            0            0 
10201000    904.71393    46156.782    381.70036   -519.69143    581.40367    61.712234    670.71981   -519.69143            0   -11.345885            0            0            0            0            0            0 
10202000     777.0031    48348.816    375.85993   -506.58158    572.50756    65.925981    613.80477   -506.58158            0   -10.831486            0            0            0            0            0            0 
10203000    1001.7102    44299.975    372.06587   -542.79382    566.72847    23.934653    671.10924   -542.79382            0   -11.821441            0            0            0            0            0            0 
10204000     805.2433    46562.726    383.94723   -530.42276     584.8261    54.403332    601.21957   -530.42276            0   -11.246969            0            0            0            0            0            0 
10205000    802.05482    46833.866    383.99771   -525.23731    584.90299    59.665676    607.48829   -525.23731            0   -11.181856            0            0            0            0            0            0 
10206000    944.61923     45238.86    388.40867   -527.60095    591.62174    64.020781      687.245   -527.60095            0     -11.5761            0            0            0            0            0            0 
10207000    935.99522    45279.932    366.34819   -529.17031    558.01934    28.849034    646.94412   -529.17031            0   -11.565599            0            0            0            0            0            0 
10208000     839.4867    45670.449    344.33771   -532.80991    524.49311   -8.3167912    550.82891   -532.80991            0   -11.466704            0            0            0            0            0            0 
10209000    908.73199    45935.647    365.20151   -524.41957    556.27272    31.853152    640.63479   -524.41957            0   -11.400504            0            0            0            0            0            0 
10210000     914.7498    45418.671    345.36703   -524.39717    526.06097    1.6638004    607.58009   -524.39717            0    -11.53027            0            0            0            0            0            0 
10211000    806.08263    46530.742    338.65848   -517.83579    515.84255    -1.993248    545.01696   -517.83579            0     -11.2547            0            0            0            0            0            0 
10212000    862.61168    46238.465    348.59695   -515.55053    530.98076     15.43023    597.12429   -515.55053            0   -11.325842            0            0            0            0            0            0 
10213000    910.40321    45904.291    344.24272   -513.61739    524.34842    10.731025    620.21592   -513.61739            0   -11.408292            0            0            0            0            0            0 
10214000    872.23658    46203.195    352.52278   -523.22838    536.96056    13.732178    601.46804   -523.22838            0   -11.334488            0            0            0            0            0            0 
10215000    846.83428    46556.562    349.17544   -510.68733    531.86191    21.174581    596.15787   -510.68733            0   -11.248458            0            0            0            0            0            0 
10216000    850.81255    45979.732    350.78179   -525.07058    534.30869    9.2381053    579.76511   -525.07058            0   -11.389574            0            0            0            0            0            0 
10217000    817.74544    47255.251    337.22483   -507.92495    513.65882    5.7338692    569.29897   -507.92495            0   -11.082145            0            0            0            0            0            0 
10218000    776.96492    46609.881    346.53734   -522.94023    527.84358    4.9033461    533.05093   -522.94023            0   -11.235591            0            0            0            0            0            0 
10219000    1035.0466     47375.67    342.60677   -485.12174    521.85656    36.734817    751.87495   -485.12174            0   -11.053977            0            0            0            0            0            0 
10220000    881.37805    46394.376    349.87501   -516.73877    532.92749    16.188714    612.54178   -516.73877            0   -11.287781            0            0            0            0            0            0 
10221000    809.37335    46454.019    336.41431    -520.2618    512.42424   -7.8375586    540.50012    -520.2618            0   -11.273288            0            0            0            0            0            0 
10222000    862.58217    46721.175    363.10241    -510.7084    553.07539    42.366986    630.11358    -510.7084            0   -11.208826            0            0            0            0            0            0 
10223000    996.05409     46763.45    371.46255    -501.2308     565.8095    64.578705    743.88456    -501.2308            0   -11.198693            0            0            0            0            0            0 
10224000     797.9509    45826.072     371.6476   -540.11385    566.09137    25.977512    559.26905   -540.11385            0   -11.427764            0            0            0            0            0            0 
10225000    763.42796    46914.197    347.22621   -515.47979    528.89286    13.413066      535.747   -515.47979            0   -11.162709            0            0            0            0            0            0 
10226000    902.68931    44793.883       348.93   -537.70248    531.48805   -6.2144228    583.48799   -537.70248            0   -11.691095            0            0            0            0            0            0 
10227000     902.2107    46210.469    359.84218   -517.48841    548.10943    30.621018    638.64994   -517.48841            0   -11.332704            0            0            0            0            0            0 
10228000     747.0164    46317.086    343.77243   -529.83435    523.63208   -6.2022719    498.39774   -529.83435            0   -11.306617            0            0            0            0            0            0 
10229000    835.51599    46948.928     352.3747   -512.96198      536.735    23.773017    595.85245   -512.96198            0   -11.154452            0            0            0            0            0            0 
10230000    910.99732     47038.78     368.1137   -506.26861    560.70856    54.439947    679.39537   -506.26861            0   -11.133145            0            0            0            0            0            0 
10231000    905.80398    46350.827    362.45279   -517.26391     552.0859    34.821982    647.12669   -517.26391            0   -11.298386            0            0            0            0            0            0 
10232000    867.15419     45692.23    331.20754   -519.69286    504.49332   -15.199543    562.64973   -519.69286            0   -11.461239            0            0            0            0            0            0 
10233000    852.11067    46776.561    363.99142   -514.50568    554.42952    39.923836    621.22364   -514.50568            0   -11.195555            0            0            0            0            0            0 
10234000    1062.0733    45088.618    348.99723   -521.07707    531.59046    10.513391    708.90223   -521.07707            0   -11.614673            0            0            0            0            0            0 
10235000    890.16514    47104.857    338.31133   -497.71473    515.31377    17.599041    629.12115   -497.71473            0   -11.117527            0            0            0            0            0            0 
10236000    876.33616    46530.509    345.62609    -518.8184    526.45556    7.6371618    602.31866    -518.8184            0   -11.254756            0            0            0            0            0            0 
10237000    825.80254    46698.239    348.07865    -516.6335    530.19129    13.557793    575.96725    -516.6335            0   -11.214332            0            0            0            0            0            0 
10238000    966.92335     47175.97    384.87456   -493.66797    586.23859    92.570626    757.82659   -493.66797            0   -11.100769            0            0            0            0            0            0 
10239000     703.4651    47084.303    351.36509   -523.14356    535.19717    12.053617     495.1064   -523.14356            0   -11.122381            0            0            0            0            0            0 
10240000     738.8981    45859.663    336.73064   -529.52447    512.90607   -16.618392    477.56858   -529.52447            0   -11.419394            0            0            0            0            0            0 
10241000    858.17167    46765.568    327.04385   -509.15175    498.15121   -11.000545    574.29643   -509.15175            0   -11.198186            0            0            0            0            0            0 
10242000    785.25027    46286.715    367.38432   -527.68731    559.59756    31.910249    561.98893   -527.68731            0   -11.314036            0            0            0            0            0            0 
10243000    961.92444    46056.295    362.07742   -509.60195    551.51414    41.912184    688.02126   -509.60195            0    -11.37064            0            0            0            0            0            0 
10244000    1069.2781    45691.201    352.44014   -506.11938    536.83469    30.715306    743.23874   -506.11938            0   -11.461496            0            0            0            0            0            0 
10245000    942.46206    46374.921    359.49979   -508.01263    547.58791    39.575273    676.99125   -508.01263            0   -11.292516            0            0            0            0            0            0 
10246000    877.44575    46687.293    364.06112   -509.73579    554.53569    44.799895    642.24067   -509.73579            0   -11.216961            0            0            0            0            0            0 
10247000    966.35059    46131.641     357.8088   -521.49754     545.0122    23.514652    673.65857   -521.49754            0   -11.352069            0            0            0            0            0            0 
10248000    816.24527    47703.983     331.9793   -502.54279    505.66886    3.1260695    570.99906   -502.54279            0     -10.9779            0            0            0            0            0            0 
10249000    968.27997    44059.442    359.84019   -547.76365    548.10639   0.34273648    622.52242   -547.76365            0   -11.885978            0            0            0            0            0            0 
10250000    839.90716    46556.548    339.20118   -515.70524    516.66919   0.96394318    571.24369   -515.70524            0   -11.248462            0            0            0            0            0            0 
10251000    818.66544    45121.336     340.3262   -537.89515     518.3828   -19.512353    519.20913   -537.89515            0   -11.606251            0            0            0            0            0            0 
10252000    945.35906    46645.094    356.42842   -504.57879    542.90961    38.330818    681.43103   -504.57879            0   -11.227109            0            0            0            0            0            0 
10253000    891.93163    47139.994    351.26287   -500.39846    535.04147    34.643012    647.83571   -500.39846            0   -11.109241            0            0            0            0            0            0 
10254000    835.85723    46007.409    345.08646   -523.29682    525.63361    2.3367852    563.17264   -523.29682            0   -11.382722            0            0            0            0            0            0 
10255000    924.54347    48307.832    382.61927   -493.63613    582.80335     89.16722    740.52675   -493.63613            0   -10.840676            0            0            0            0            0            0 
10256000    997.91213    45395.326    342.08488   -518.32709    521.06161    2.7345182    663.39652   -518.32709            0     -11.5362            0            0            0            0            0            0 
10257000    814.71834    47667.105    343.16011   -503.69874    522.69941    19.000667    585.37317   -503.69874            0   -10.986393            0            0            0            0            0            0 
10258000     667.6045    47732.626    347.91602   -513.14131    529.94357    16.802253    481.54269   -513.14131            0   -10.971312            0            0            0            0            0            0 
10259000    812.11858    46771.059    341.80334   -516.46077    520.63278    4.1720083    558.12452   -516.46077            0   -11.196872            0            0            0            0            0            0 
10260000    940.79933    45581.319    352.57357   -520.66501    537.03793    16.372922    641.77566   -520.66501            0   -11.489126            0            0            0            0            0            0 
10261000    691.12176    46883.546    352.69218   -531.57248    537.21858    5.6461035    478.19953   -531.57248            0   -11.170007            0            0            0            0            0            0 
10262000    854.37654    48144.133    356.03304   -484.21706    542.30736    58.090301    657.97609   -484.21706            0   -10.877536            0            0            0            0            0            0 
10263000    900.15937    45086.483    358.07619   -534.72454    545.41948    10.694939    602.58583   -534.72454            0   -11.615223            0            0            0            0            0            0 
10264000    785.26701    46944.873    351.46961   -513.95257    535.35637    21.403801    559.03122   -513.95257            0   -11.155415            0            0            0            0            0            0 
10265000    1059.8729    44785.396    366.13381   -528.57411     557.6928    29.118693    721.37368   -528.57411            0   -11.693311            0            0            0            0            0            0 
10266000    924.82679    46599.869    358.12932   -503.81565    545.50041    41.684757    670.20749   -503.81565            0   -11.238005            0            0            0            0            0            0 
10267000    834.48179    46436.982    356.18917   -524.13822    542.54518    18.406961    583.54787   -524.13822            0   -11.277424            0            0            0            0            0            0 
10268000    869.89947    46017.009    358.09954   -526.07783    545.45505    19.377222    603.17623   -526.07783            0   -11.380347            0            0            0            0            0            0 
10269000    960.13106    46557.505    360.64045   -504.74002    549.32534    44.585327    696.50803   -504.74002            0   -11.248231            0            0            0            0            0            0 
10270000    828.80516    47510.285     384.6607   -512.65828    585.91285    73.254568    647.52435   -512.65828            0   -11.022656            0            0            0            0            0            0 
10271000    956.59947    44634.664    334.68603   -529.58918    509.79173    -19.79745    602.90173   -529.58918            0   -11.732799            0            0            0            0            0            0 
10272000    759.33252    47347.167    366.36987   -518.68737    558.05236    39.364989    563.69158   -518.68737            0   -11.060631            0            0            0            0            0            0 
10273000    1152.0698    45981.016    358.42282   -492.38667    545.94746    53.560793     826.1226   -492.38667            0   -11.389256            0            0            0            0            0            0 
10274000    814.88014    45531.519    371.27803   -538.73582    565.52845    26.792629     567.8979   -538.73582            0   -11.501693            0            0            0            0            0            0 
10275000    777.75211    46720.522    344.73291   -515.12251    525.09507    9.9725651    539.91021   -515.12251            0   -11.208983            0            0            0            0            0            0 
10276000    1034.1896    45024.717    375.07968   -521.78502     571.3191    49.534075    728.62362   -521.78502            0   -11.631157            0            0            0            0            0            0 
10277000    964.97586    47288.066    352.47132   -488.29436    536.88218    48.587821    714.08144   -488.29436            0   -11.074455            0            0            0            0            0            0 
10278000    972.26794     44981.67     346.0156    -527.7682    527.04886  -0.71934305    637.09963    -527.7682            0   -11.642288            0            0            0            0            0            0 
10279000    1040.3994    45670.839    343.29672   -509.74179    522.90748    13.165693    706.13656   -509.74179            0   -11.466607            0            0            0            0            0            0 
10280000    893.14113    45042.588    344.81873   -538.84088     525.2258   -13.615084    573.08927   -538.84088            0   -11.626542            0            0            0            0            0            0 
10281000    824.34415    45223.045      348.931   -542.11512    531.48958   -10.625542    533.05558   -542.11512            0   -11.580148            0            0            0            0            0            0 
10282000    892.04986    46936.918    344.22012    -504.0106      524.314      20.3034    630.93544    -504.0106            0   -11.157306            0            0            0            0            0            0 
10283000    920.97415    44827.255    375.06704    -542.2544    571.29985    29.045451    631.14107    -542.2544            0   -11.682392            0            0            0            0            0            0 
10284000    824.42187    47793.858    347.91077   -499.52179    529.93558     30.41379    605.05594   -499.52179            0   -10.957256            0            0            0            0            0            0 
10285000    847.35763    46046.614    356.60523   -519.89357    543.17893    23.285365    592.32214   -519.89357            0   -11.373031            0            0            0            0            0            0 
10286000    1019.4945    45567.809    350.74343   -515.19875    534.25026    19.051517     696.5665   -515.19875            0   -11.492533            0            0            0            0            0            0 
10287000    843.79821    47279.505    367.68113   -509.90952    560.04967    50.140151     631.9585   -509.90952            0    -11.07646            0            0            0            0            0            0 
10288000    782.55223    44956.032    380.14521   -554.56296    579.03488    24.471922    537.54259   -554.56296            0   -11.648927            0            0            0            0            0            0 
10289000    953.20841    46540.867    337.90276   -506.57523    514.69144    8.1162148    655.10719   -506.57523            0   -11.252252            0            0            0            0            0            0 
10290000    885.06601    46158.073    344.84317   -520.08489    525.26302    5.1781309    600.97638   -520.08489            0   -11.345568            0            0            0            0            0            0 
10291000    844.32247    46180.447    355.27447   -517.44999    541.15192    23.701929    592.34843   -517.44999            0   -11.340071            0            0            0            0            0            0 
10292000    939.66293    46125.303    347.57984    -510.3121    529.43151    19.119408    651.22149    -510.3121            0   -11.353628            0            0            0            0            0            0 
10293000    1103.2931    45819.465    385.53728   -506.77948    587.24805    80.468574    817.72202   -506.77948            0   -11.429412            0            0            0            0            0            0 
10294000    934.37565     45983.84    391.64453   -522.67502    596.55057    73.875543    700.49321   -522.67502            0   -11.388556            0            0            0            0            0            0 
10295000    738.37318     46790.43    351.56175   -527.94964    535.49673    7.5470919    511.40589   -527.94964            0   -11.192236            0            0            0            0            0            0 
10296000    882.22518    46600.035    355.94972   -520.52926    542.18046    21.651199    621.22353   -520.52926            0   -11.237965            0            0            0            0            0            0 
10297000    1096.8116    45665.173    365.16633   -505.33996    556.21915    50.879186    781.33348   -505.33996            0   -11.468029            0            0            0            0            0            0 
10298000    873.34898      46521.2    360.44624    -523.6366    549.02952    25.392922    617.92874    -523.6366            0   -11.257009            0            0            0            0            0            0 
10299000    951.43678    46059.672    364.48369   -518.04347    555.17935    37.135881    676.24743   -518.04347            0   -11.369806            0            0            0            0            0            0 
10300000    919.05108    45556.696    362.56594   -529.29556    552.25824    22.962678    633.57809   -529.29556            0   -11.495336            0            0            0            0            0            0 
10301000    809.45394    46154.185    387.32185   -535.85688    589.96629    54.109406    598.96212   -535.85688            0   -11.346524            0            0            0            0            0            0 
10302000    754.94598    48676.603    352.17442   -501.99802    536.42993    34.431911     570.3668   -501.99802            0   -10.758548            0            0            0            0            0            0 
10303000     938.4459    45172.021    372.99372   -535.09652    568.14177    33.045255    651.28177   -535.09652            0   -11.593228            0            0            0            0            0            0 
10304000    791.70186    48212.466    333.06244   -488.04479    507.31868     19.27389    575.94272   -488.04479            0   -10.862119            0            0            0            0            0            0 
10305000    866.41738    44265.717    363.14931   -555.86365    553.14683   -2.7168222    556.61632   -555.86365            0    -11.83059            0            0            0            0            0            0 
10306000    1069.5328    46254.216     375.2183   -495.32573    571.53023    76.204504    797.67956   -495.32573            0   -11.321985            0            0            0            0            0            0 
10307000    788.54364    49077.791    377.00515   -497.21682    574.25196    77.035137    641.43465   -497.21682            0   -10.670601            0            0            0            0            0            0 
10308000    715.40835     45852.29      364.558   -542.17407    555.29253    13.118457    491.51819   -542.17407            0    -11.42123            0            0            0            0            0            0 
10309000    927.31584    45324.628    356.64716   -530.35697    543.24279    12.885818    625.85384   -530.35697            0   -11.554194            0            0            0            0            0            0 
10310000    879.72255    46931.829     387.1144   -511.53598    589.65031    78.114329    680.24271   -511.53598            0   -11.158515            0            0            0            0            0            0 
10311000    947.20666    44581.637    355.85403   -536.66176     542.0347    5.3729493    621.22535   -536.66176            0   -11.746755            0            0            0            0            0            0 
10312000    856.29769    46259.618    340.98414   -518.97305    519.38497   0.41191977    578.11236   -518.97305            0   -11.320663            0            0            0            0            0            0 
10313000    884.41756    44395.735    362.85228   -549.69798    552.69439    2.9964104    575.62693   -549.69798            0   -11.795943            0            0            0            0            0            0 
10314000    805.59524    47951.508    353.07821   -497.63615    537.80658    40.170429    603.54216   -497.63615            0   -10.921232            0            0            0            0            0            0 
10315000    825.38126    46211.028    372.78062   -528.17608    567.81718    39.641101    595.89892   -528.17608            0   -11.332566            0            0            0            0            0            0 
10316000    872.30753     45811.72    389.20243   -530.07897    592.83078    62.751813    645.55525   -530.07897            0   -11.431344            0            0            0            0            0            0 
10317000    928.33773    47320.257    373.19062   -498.23932    568.44169    70.202367     710.8644   -498.23932            0   -11.066921            0            0            0            0            0            0 
10318000    755.98163     46713.82    357.98767    -525.5679    545.28465    19.716751    534.74674    -525.5679            0   -11.210591            0            0            0            0            0            0 
10319000    770.55104    46215.744    350.02629   -528.48937    533.15793    4.6685527    524.02706   -528.48937            0    -11.33141            0            0            0            0            0            0 
10320000    817.24779    47573.265    337.40845   -497.02533     513.9385     16.91317    583.92563   -497.02533            0   -11.008064            0            0            0            0            0            0 
10321000    853.76796    46294.715    356.32594   -518.17625    542.75352    24.577266    601.00804   -518.17625            0    -11.31208            0            0            0            0            0            0 
10322000    983.27387    45005.733     346.6053   -530.53045    527.94709    -2.583359    642.80069   -530.53045            0   -11.636063            0            0            0            0            0            0 
10323000    839.29167    46559.751    373.45123   -515.39613    568.83865    53.442511    623.34356   -515.39613            0   -11.247688            0            0            0            0            0            0 
10324000    1002.9969    46481.507    374.20712   -505.02529    569.99002    64.964737    744.88136   -505.02529            0   -11.266622            0            0            0            0            0            0 
10325000    724.43981     47426.69    348.23791   -508.49391    530.43387    21.939951    523.01296   -508.49391            0   -11.042085            0            0            0            0            0            0 
10326000     854.4319    47064.834    361.13653    -507.5454    550.08098    42.535581    629.01108    -507.5454            0   -11.126982            0            0            0            0            0            0 
10327000    890.73876    46213.939     348.1173   -518.12701    530.25016     12.12315    612.46584   -518.12701            0   -11.331853            0            0            0            0            0            0 
10328000    771.43385    45910.917    373.21466    -538.0824    568.47831    30.395903    546.91995    -538.0824            0   -11.406645            0            0            0            0            0            0 
10329000    1061.0962    45727.181    375.00056   -503.68107    571.19857    67.517509    775.14564   -503.68107            0   -11.452478            0            0            0            0            0            0 
10330000    959.20095    44774.329    372.21391   -534.16879    566.95397    32.785185    659.13157   -534.16879            0   -11.696201            0            0            0            0            0            0 
10331000    1203.5009    43895.971    389.48659   -530.39308    593.26362    62.870538    833.32497   -530.39308            0   -11.930242            0            0            0            0            0            0 
10332000    808.54859    46392.779    362.34013   -525.38197    551.91429    26.532323    573.58911   -525.38197            0   -11.288169            0            0            0            0            0            0 
10333000    843.08222    47659.842    345.50357   -498.91156    526.26894    27.357376    613.35845   -498.91156            0   -10.988067            0            0            0            0            0            0 
10334000    739.63209    46740.668    358.56286   -534.28158    546.16077     11.87919    516.06028   -534.28158            0   -11.204152            0            0            0            0            0            0 
10335000    819.10749    46379.393    357.17379   -518.40075    544.04495    25.644198    579.68512   -518.40075            0   -11.291427            0            0            0            0            0            0 
10336000     863.1086    47046.886    372.96607   -510.26073    568.09966    57.838928    650.04413   -510.26073            0   -11.131226            0            0            0            0            0            0 
10337000    778.10148    46648.414    349.52187    -516.2673    532.38959    16.122299    545.47973    -516.2673            0    -11.22631            0            0            0            0            0            0 
10338000    792.18753    44749.149    328.72315   -540.97939    500.70911   -40.270283    476.72749   -540.97939            0   -11.702782            0            0            0            0            0            0 
10339000    768.79456     46171.52    361.82486   -528.98387    551.12944    22.145562    539.82434   -528.98387            0   -11.342264            0            0            0            0            0            0 
10340000    831.57901    46074.892    362.69561   -525.70638    552.45575    26.749373    585.53308   -525.70638            0    -11.36605            0            0            0            0            0            0 
10341000    1006.9028    46423.691    364.25108   -508.93333    554.82503    45.891703    727.60712   -508.93333            0   -11.280653            0            0            0            0            0            0 
10342000    961.71351    46526.874    389.02446   -503.68409     592.5597     88.87561    741.44317   -503.68409            0   -11.255636            0            0            0            0            0            0 
10343000     971.7611    45221.633    340.20122   -521.84786    518.19244   -3.6554153    637.23184   -521.84786            0   -11.580509            0            0            0            0            0            0 
10344000    940.10156     47529.25    372.15421   -493.20408    566.86303    73.658951    725.30479   -493.20408            0   -11.018258            0            0            0            0            0            0 
10345000    922.10258    46459.756    359.21214    -510.2983    547.14975    36.851449    661.63855    -510.2983            0   -11.271896            0            0            0            0            0            0 
10346000    1003.8739    45192.066     376.8989   -520.68898    574.09012    53.401146    715.03431   -520.68898            0   -11.588086            0            0            0            0            0            0 
10347000    888.85678    45704.984    361.82634   -529.22693    551.13168    21.904756    614.38141   -529.22693            0    -11.45804            0            0            0            0            0            0 
10348000    932.60605    45847.276    358.95327   -521.82494    546.75545    24.930513    648.50401   -521.82494            0   -11.422479            0            0            0            0            0            0 
10349000    965.39505    45016.463    344.26307   -525.72648    524.37943   -1.3470574    632.45307   -525.72648            0    -11.63329            0            0            0            0            0            0 
10350000    788.11027    46949.594    348.18639   -518.21733    530.35539    12.138062    551.76636   -518.21733            0   -11.154293            0            0            0            0            0            0 
10351000    803.57191    45768.034    341.95627   -527.47171    520.86572    -6.605991    529.76205   -527.47171            0   -11.442256            0            0            0            0            0            0 
10352000    894.01436    48784.323     355.7797   -478.19328    541.92148    63.728206    699.79199   -478.19328            0   -10.734792            0            0            0            0            0            0 
10353000    941.40622    44757.384    354.50747   -529.50239    539.98363    10.481243    624.97525   -529.50239            0   -11.700629            0            0            0            0            0            0 
[...]
14939000    886.86711    46007.605    372.95267   -525.62911    568.07925    42.450143    637.51467   -525.62911            0   -11.382674            0            0            0            0            0            0 
14940000     1173.938    44766.026    390.89542   -514.58844    595.40954    80.821103    847.24597   -514.58844            0    -11.69837            0            0            0            0            0            0 
14941000    779.97873    47737.943    374.18479   -511.28076      569.956    58.675243    601.70341   -511.28076            0    -10.97009            0            0            0            0            0            0 
14942000    829.27153    46579.409    344.99984   -516.56724    525.50166    8.9344218    572.26927   -516.56724            0   -11.242941            0            0            0            0            0            0 
14943000      807.558    47314.028    369.24168   -508.37941    562.42669    54.047288    611.28377   -508.37941            0   -11.068378            0            0            0            0            0            0 
14944000    877.63095    46664.561    373.97291   -520.73749    569.63327    48.895776    646.17169   -520.73749            0   -11.222425            0            0            0            0            0            0 
14945000    922.77798      45193.3    353.32645    -526.1731    538.18471    12.011612    620.21266    -526.1731            0    -11.58777            0            0            0            0            0            0 
14946000    767.01063    48042.981    335.45091   -503.31039    510.95678    7.6463953    545.05822   -503.31039            0   -10.900438            0            0            0            0            0            0 
14947000    951.18976     46167.57     351.4667   -512.17799    535.35195    23.173957    663.61635   -512.17799            0   -11.343234            0            0            0            0            0            0 
14948000    882.48569    45946.446    368.63624   -527.75141    561.50449    33.753081    625.09067   -527.75141            0   -11.397825            0            0            0            0            0            0 
14949000     813.8761    47143.318    354.24012   -508.82782    539.57641    30.748591    590.31847   -508.82782            0   -11.108458            0            0            0            0            0            0 
14950000    787.10481    46088.389    351.65228   -530.21225    535.63462    5.4223738    534.47635   -530.21225            0   -11.362722            0            0            0            0            0            0 
14951000    882.83345    45835.267     357.9005    -522.5429    545.15187    22.608974    612.74814    -522.5429            0   -11.425472            0            0            0            0            0            0 
14952000    739.15356     46290.77    355.03912   -533.73779    540.79344    7.0556439    506.06072   -533.73779            0   -11.313045            0            0            0            0            0            0 
14953000    922.11319    47430.766    353.85149   -489.24663    538.98444    49.737811    687.59031   -489.24663            0   -11.041136            0            0            0            0            0            0 
14954000     1032.084    45593.932    367.03754   -511.53687    559.06935    47.532482    733.80718   -511.53687            0   -11.485948            0            0            0            0            0            0 
14955000    770.32719    46294.266    348.57303   -530.37755    530.94432   0.56676732    520.65655   -530.37755            0    -11.31219            0            0            0            0            0            0 
14956000    876.93734    46881.757     355.4388   -509.92801    541.40223    31.474222    631.05587   -509.92801            0   -11.170433            0            0            0            0            0            0 
14957000    858.98908    46865.068      363.456   -508.57955    553.61398    45.034426    632.13538   -508.57955            0   -11.174411            0            0            0            0            0            0 
14958000    1077.7039    45681.363    351.89503    -501.9099    536.00437    34.094466    752.07783    -501.9099            0   -11.463965            0            0            0            0            0            0 
14959000    780.42666    47564.474    355.26128   -511.54492    541.13183    29.586903    570.95254   -511.54492            0   -11.010099            0            0            0            0            0            0 
14960000    931.61719    44667.589    354.03811   -540.65401     539.2687   -1.3853046    605.49898   -540.65401            0   -11.724151            0            0            0            0            0            0 
14961000    986.93086    46569.221    360.73515   -504.07056     549.4696     45.39904    715.68727   -504.07056            0   -11.245401            0            0            0            0            0            0 
14962000    992.83254    46042.147    355.68851   -511.82899    541.78258    29.953596    696.61829   -511.82899            0   -11.374134            0            0            0            0            0            0 
14963000     1078.354    46190.601    371.45499   -497.49479    565.79798    68.303196     794.7283   -497.49479            0   -11.337578            0            0            0            0            0            0 
14964000    859.17538    44091.491     349.6309   -553.72197    532.55566   -21.166301    531.30853   -553.72197            0   -11.877338            0            0            0            0            0            0 
14965000    622.00539    47309.098     331.4729   -520.11918    504.89751   -15.221669    413.93385   -520.11918            0   -11.069532            0            0            0            0            0            0 
14966000    766.33621    47222.974    341.11976   -508.98809    519.59155    10.603457    538.37816   -508.98809            0    -11.08972            0            0            0            0            0            0 
14967000    916.85864    45528.309    352.22858   -530.30818    536.51244    6.2042632    614.98345   -530.30818            0   -11.502504            0            0            0            0            0            0 
14968000     871.9653    47228.747    359.36426   -504.23882    547.38146    43.142634    643.73736   -504.23882            0   -11.088364            0            0            0            0            0            0 
14969000    851.92694    45782.061    377.57269   -531.92313    575.11643    43.193298    612.01163   -531.92313            0    -11.43875            0            0            0            0            0            0 
14970000    751.83756    46700.728    351.79954    -525.7212    535.85892    10.137726    522.20092    -525.7212            0   -11.213734            0            0            0            0            0            0 
14971000     756.2501     45696.55    343.48494   -536.63249    523.19418   -13.438305    490.55497   -536.63249            0   -11.460155            0            0            0            0            0            0 
14972000    739.05632    47487.396    344.13466   -515.73777    524.18383    8.4460653    520.28318   -515.73777            0   -11.027969            0            0            0            0            0            0 
14973000    999.01992    45067.018    348.69012   -519.84246    531.12268    11.280225    667.89229   -519.84246            0    -11.62024            0            0            0            0            0            0 
14974000    730.73556    46982.052     345.2069   -520.79157    525.81706    5.0254928    505.71457   -520.79157            0   -11.146587            0            0            0            0            0            0 
14975000    780.29968    46550.363    334.18217   -516.04845    509.02426   -7.0241953     522.7129   -516.04845            0   -11.249956            0            0            0            0            0            0 
14976000     902.4464    45912.086    368.95333   -522.31546    561.98748    39.672019    643.93269   -522.31546            0   -11.406355            0            0            0            0            0            0 
14977000     1084.562    45384.369    373.83058   -510.38765    569.41648     59.02883    776.88355   -510.38765            0   -11.538985            0            0            0            0            0            0 
14978000    884.74734    47180.722     339.5058   -499.99395    517.13317    17.139223    625.91833   -499.99395            0   -11.099651            0            0            0            0            0            0 
14979000    873.85564    45990.998     374.8577   -520.74757    570.98098    50.233405    636.35594   -520.74757            0   -11.386784            0            0            0            0            0            0 
14980000    853.47575    46130.318    351.42149   -524.92291    535.28309    10.360176     584.5474   -524.92291            0   -11.352394            0            0            0            0            0            0 
14981000    910.30204    46130.056    363.81786   -518.15324    554.16515    36.011911     648.4263   -518.15324            0   -11.352458            0            0            0            0            0            0 
14982000    945.35264    45478.719    364.55365   -527.80134    555.28591    27.484575    654.49961   -527.80134            0   -11.515046            0            0            0            0            0            0 
14983000    912.78636    46680.617    368.07269   -509.54944    560.64609    51.096651    672.51148   -509.54944            0   -11.218565            0            0            0            0            0            0 
14984000    1034.9876    45361.674    352.89179   -519.22056    537.52263     18.30207    703.00169   -519.22056            0   -11.544758            0            0            0            0            0            0 
14985000    745.31939    47704.257    351.23128    -510.6889    534.99335     24.30445    542.83631    -510.6889            0   -10.977837            0            0            0            0            0            0 
14986000    689.45891    47022.888    360.86751   -525.35186     549.6712    24.319343    497.13688   -525.35186            0   -11.136907            0            0            0            0            0            0 
14987000    777.65949    47411.214    356.53779   -508.86333     543.0762     34.21287     571.9208   -508.86333            0   -11.045689            0            0            0            0            0            0 
14988000    854.32102    45814.714    373.61232    -526.8258    569.08402    42.258217    613.08187    -526.8258            0   -11.430597            0            0            0            0            0            0 
14989000      912.025    45642.688    365.60874   -520.44994    556.89302    36.443073    643.53415   -520.44994            0   -11.473679            0            0            0            0            0            0 
14990000     993.4561    47195.808    355.86126   -488.24331    542.04572    53.802412    737.60068   -488.24331            0   -11.096103            0            0            0            0            0            0 
14991000    696.43805    46700.966    375.18042   -536.35737    571.47254     35.11517    509.44916   -536.35737            0   -11.213677            0            0            0            0            0            0 
14992000    791.63474    46640.796    348.11872   -510.18869    530.25233    20.063639    558.54006   -510.18869            0   -11.228143            0            0            0            0            0            0 
14993000    761.53976    46730.279    332.97104   -527.77439    507.17947   -20.594923    498.40447   -527.77439            0   -11.206643            0            0            0            0            0            0 
14994000    879.66778    45499.148    359.38483     -529.227    547.41279    18.185791    601.89674     -529.227            0   -11.509876            0            0            0            0            0            0 
14995000    845.94157    47662.295    356.01091   -497.56419    542.27367    44.709471    632.72827   -497.56419            0   -10.987502            0            0            0            0            0            0 
14996000    890.41708    47822.069      355.978   -492.31465    542.22353    49.908871    670.91763   -492.31465            0   -10.950792            0            0            0            0            0            0 
14997000    981.57253    44681.948    376.48877   -541.36937    573.46541    32.096041    671.72834   -541.36937            0   -11.720383            0            0            0            0            0            0 
14998000    976.15485    44987.224    374.12477    -530.1798    569.86459     39.68479    680.13269    -530.1798            0    -11.64085            0            0            0            0            0            0 
14999000      849.694    45793.585    360.85462    -523.9133    549.65157    25.738278    593.20851    -523.9133            0   -11.435871            0            0            0            0            0            0 
15000000    716.80753    45414.109    342.03014   -543.99106    520.97823   -23.012827    451.74184   -543.99106            0   -11.531428            0            0            0            0            0            0 
Loop time of 1688.28 on 8 procs for 5000000 steps with 512 atoms

Pair  time (%) = 999.204 (59.1848)
Bond  time (%) = 0.459876 (0.0272394)
Neigh time (%) = 36.1651 (2.14213)
Comm  time (%) = 489.328 (28.9838)
Outpt time (%) = 0.28919 (0.0171293)
Other time (%) = 162.833 (9.64491)

Nlocal:    64 ave 66 max 57 min
Histogram: 1 0 0 0 0 0 1 1 2 3
Nghost:    1467.25 ave 1481 max 1457 min
Histogram: 2 1 1 0 1 1 0 0 0 2
Neighs:    7290.75 ave 7569 max 6350 min
Histogram: 1 0 0 0 0 0 0 2 1 4

Total # of neighbors = 58326
Ave neighs/atom = 113.918
Ave special neighs/atom = 0
Neighbor list builds = 87261
Dangerous builds = 0

Averages
Group Pressure(MPa) Volume(m3) Temperature(K) PE(J) KE(J) ET(J) ET^2(J) H(J) H^2(J^2) V^2(m6) V*H(m3*J) Hconf(J) Uext*Hconf(J^2) V*Hconf(m3*J) Uext(J)
Block1 89.685010334639386542 4.6247848616116689702e-26 359.7184159052656014 -3.6004183108692482261e-18 3.8067872795108821159e-18 2.0636896864163218052e-19 7.0591085491801711588e-38 4.3497093815251121851e-18 1.9186478606473314599e-35 2.1397801456380671837e-51 2.0110864838052571474e-43 5.4292210201423652109e-19 -1.928844291113056062e-36 2.5054697475904770475e-44 -3.6004183108692482261e-18
Block2 90.082928797535060994 4.6227999984180690849e-26 360.06467231984652244 -3.6017859610806800592e-18 3.8104516026486182862e-18 2.0866564156793849185e-19 7.3723689546243627322e-38 4.3680222806302430026e-18 1.9358200937298167011e-35 2.1380028649241987645e-51 2.0185341041688336904e-43 5.5757067798162625712e-19 -1.9841453408177199289e-36 2.5700551499750549863e-44 -3.6017859610806800592e-18
Block3 90.230892946732964788 4.6219213871977768495e-26 360.91130516031864772 -3.6023134545506564405e-18 3.8194112527110616404e-18 2.1709779816040606657e-19 7.4882191624331012789e-38 4.3823655852676067865e-18 1.9471428290607170964e-35 2.1371395744329264453e-51 2.024617659701616545e-43 5.6295433255654408682e-19 -2.0045742152896613175e-36 2.5930189426067095525e-44 -3.6023134545506564405e-18
Block4 89.870763143845493914 4.6250302000363814365e-26 359.86055850508330423 -3.6011906104734452696e-18 3.8082915301050571158e-18 2.0710091963161141282e-19 7.0269723021125580409e-38 4.3588995385029127887e-18 1.9286299123271022097e-35 2.1400037006946967148e-51 2.0152563756682321201e-43 5.5060800839784999146e-19 -1.9567823222560137206e-36 2.5393809629120184205e-44 -3.6011906104734452696e-18
Block5 90.619987438487896725 4.6225820723673209595e-26 360.42300708356191308 -3.5959781139986922437e-18 3.8142437471705646191e-18 2.1826563317187926065e-19 7.4383129177122108424e-38 4.4029703987386935693e-18 1.9643478599684657962e-35 2.1377442538584646023e-51 2.0347807807635328876e-43 5.8872665156811941685e-19 -2.0926374845053468629e-36 2.7169193434500793427e-44 -3.5959781139986922437e-18
Ave_blocks 90.097916532248149224 4.6234237039262434601e-26 360.1955917948151864 -3.6003372901945446019e-18 3.8118370824292373718e-18 2.1149979223469349211e-19 7.2769963772124812283e-38 4.3723934369329133583e-18 1.9389177111466868665e-35 2.1385341079096708015e-51 2.0208550808214946374e-43 5.6055635450367521615e-19 -1.9933967307963593111e-36 2.5849688293068681686e-44 -3.6003372901945446019e-18
Stdev_blocks 0.32017357168560706127 1.2480294700858128722e-29 0.42919631378615635819 2.2689649558026137503e-21 4.5420501022214896845e-21 5.1151171023690239044e-21 1.9479279426690914856e-39 1.8709104776482549702e-20 1.5752116754755778282e-37 1.1456984877329834376e-54 8.2491216306444763068e-46 1.5608758123809541035e-20 5.5797641446012109079e-38 7.2244747759535160318e-46 2.2689649558026137503e-21






Properties
Group rho(kg/m3) Cp(J/K) Cp_conf(J/K) Cp_id(J/K) Cp2(J/K) kT(1/Pa) aP(1/K) aP2(1/K) Cv(J/K) uJT(K/Pa) sos(m/s) Cv2(J/K) uJT2(K/Pa) sos2(m/s) CvNVT(J/K)
Block1 294.9160786568390904 1.4917632289089852362e-19 4.70486055675333882e-21 3.2688196587285560174e-20 3.7393057144038898994e-20 3.9908304956045290204e-09 -0.00067841559208338386971 -0.000656981905733732322 1.472577311684539035e-19 -3.8567855074490918012e-07 927.74800691379039108 3.5593781330571181701e-20 -1.5290948970547271349e-06 944.77318005531617473 1.5674546220197500333e-20
Block2 295.04270495906439464 1.5563571450741640548e-19 2.6320413463719660592e-21 3.2703148023334711682e-20 3.5335189369706677741e-20 4.2421242737538957786e-09 -0.00086436948592539110219 -0.00090427802980697102354 1.5270413900395421738e-19 -3.8947031204684936548e-07 902.39170294468158318 3.2126658744656351906e-20 -1.7342420369356650692e-06 937.42557413457745952 1.6861983333821146035e-20
Block3 295.09879155364825465 1.480768775290654606e-19 1.4512596614743005439e-21 3.2739776323986307472e-20 3.4191035985460611025e-20 4.0113646430928763711e-09 -0.0010554142893996357275 -0.0010721489636316655462 1.4344478913976705713e-19 -4.3102353007344003084e-07 933.83779945597711958 2.9410890017909601421e-20 -1.8748706596320750577e-06 990.99681763336684526 1.5430867421243795899e-20
Block4 294.90043459765877287 1.6012547498949158156e-19 3.8897741600740018418e-21 3.2694332306415104971e-20 3.6584106466489106813e-20 3.9743402286884002311e-09 -0.00090434379061894514754 -0.00087041769108873274716 1.5670055128145580323e-19 -3.8283659820161739932e-07 933.73733822512360803 3.3411332023231059891e-20 -1.6602083130548773421e-06 966.56063429535220166 1.5313158783865320717e-20
Block5 295.05661439117119471 1.4347711658544720749e-19 4.2587665778768107529e-21 3.2718638659055901976e-20 3.6977405236932711224e-20 3.9897447924696506551e-09 -0.00063736506231704961271 -0.00054493641420039326453 1.4178071555719809369e-19 -3.9619463601797921221e-07 927.16601110310011791 3.5737342437876337885e-20 -1.4956410232114263814e-06 937.52283362664752531 1.4910967787524451517e-20
Ave_blocks 295.00292483167635282 1.5129830130046384538e-19 3.3873404605100840549e-21 3.2708818380015519662e-20 3.6096158840525599956e-20 4.0416808867218700804e-09 -0.00082798164406888111362 -0.00080975260089229898069 1.483775852301658198e-19 -3.9704072541695905877e-07 924.97617172853460943 3.3256000910848908968e-20 -1.65881138597775407e-06 955.45580794905197308 1.5638304709330445909e-20
Stdev_blocks 0.079626580823541057153 5.87849372707178949e-21 1.1888286602117257653e-21 1.8558500930684217908e-23 1.1751766620324808796e-21 1.0091036658340475555e-10 0.00015335289092034345851 0.00018704740527051818069 5.6052844944661914288e-21 1.7571080111442938363e-08 11.643222761677133548 2.3540047717199958535e-21 1.3843719083038235587e-07 20.723320080193264658 6.5976843245231354003e-22






