LAMMPS (28 Oct 2012)
Scanning data file ...
Reading data file ...
  orthogonal box = (0 0 0) to (100 100 100)
  2 by 2 by 2 MPI processor grid
  512 atoms
Finding 1-2 1-3 1-4 neighbors ...
  0 = max # of 1-2 neighbors
  0 = max # of 1-3 neighbors
  0 = max # of 1-4 neighbors
  1 = max # of special neighbors
WARNING: Resetting reneighboring criteria during minimization (min.cpp:173)
Setting up minimization ...
Memory usage per processor = 4.05499 Mbytes
Step Temp E_pair E_mol TotEng Press 
       0       520.15    1409.7233            0    2202.0127    448.73381 
     701       520.15   -217.27527            0    575.01406    35.988915 
Loop time of 0.0540057 on 8 procs for 701 steps with 512 atoms

Minimization stats:
  Stopping criterion = energy tolerance
  Energy initial, next-to-last, final = 
         1409.72334813     -217.256630745     -217.275265106
  Force two-norm initial, final = 5034.49 0.337455
  Force max component initial, final = 2457.89 0.147661
  Final line search alpha, max atom move = 0.254892 0.0376377
  Iterations, force evaluations = 701 710

Pair  time (%) = 0.00894967 (16.5717)
Bond  time (%) = 6.49989e-05 (0.120356)
Neigh time (%) = 0.00314924 (5.83131)
Comm  time (%) = 0.0216881 (40.159)
Outpt time (%) = 0 (0)
Other time (%) = 0.0201536 (37.3176)

Nlocal:    64 ave 74 max 52 min
Histogram: 1 0 0 1 1 2 0 2 0 1
Nghost:    235.125 ave 266 max 224 min
Histogram: 4 0 2 0 0 1 0 0 0 1
Neighs:    316.25 ave 371 max 226 min
Histogram: 1 0 0 1 1 1 0 1 0 3

Total # of neighbors = 2530
Ave neighs/atom = 4.94141
Ave special neighs/atom = 0
Neighbor list builds = 60
Dangerous builds = 0
Setting up run ...
Memory usage per processor = 3.36354 Mbytes
Step Temp E_pair E_mol TotEng Press Volume 
     701       520.15   -217.27527            0    575.01406    35.988915      1000000 
 5000701    558.36491   -267.05768            0    583.44037    576.37507    81875.883 
Loop time of 1117 on 8 procs for 5000000 steps with 512 atoms

Pair  time (%) = 542.142 (48.5357)
Bond  time (%) = 0.469605 (0.0420417)
Neigh time (%) = 26.1388 (2.3401)
Comm  time (%) = 391.086 (35.0123)
Outpt time (%) = 4.15146e-05 (3.71663e-06)
Other time (%) = 157.16 (14.0699)

Nlocal:    64 ave 71 max 57 min
Histogram: 1 0 1 1 0 3 0 1 0 1
Nghost:    1013.12 ave 1041 max 980 min
Histogram: 1 0 0 1 2 1 1 0 0 2
Neighs:    4033.12 ave 4635 max 3522 min
Histogram: 2 0 1 0 1 1 1 0 1 1

Total # of neighbors = 32265
Ave neighs/atom = 63.0176
Ave special neighs/atom = 0
Neighbor list builds = 106010
Dangerous builds = 3
Setting up run ...
Memory usage per processor = 3.93954 Mbytes
Step Press Volume Temp PotEng KinEng TotEng Enthalpy E_vdwl E_coul E_tail E_long E_bond E_angle E_dihed E_impro E_mol 
10000000    576.37507    81875.883    558.36491   -267.05768    850.49804    583.44037    1271.6759   -267.05768            0   -6.3961392            0            0            0            0            0            0 
10001000    471.63685    85768.231    511.80241   -261.34377    779.57433    518.23056    1108.1736   -261.34377            0   -6.1058686            0            0            0            0            0            0 
10002000    526.77792    86792.834    501.50093   -255.24934    763.88317    508.63384    1175.4211   -255.24934            0   -6.0337878            0            0            0            0            0            0 
10003000    570.67617    87231.747    547.45857   -247.82474    833.88557    586.06083    1312.0668   -247.82474            0   -6.0034284            0            0            0            0            0            0 
10004000    502.93977    88798.154    545.94125    -249.9602     831.5744     581.6142    1232.9363    -249.9602            0   -5.8975274            0            0            0            0            0            0 
10005000    490.73956    89052.467    519.63992    -245.6475    791.51238    545.86488    1183.2074    -245.6475            0   -5.8806855            0            0            0            0            0            0 
10006000    490.40474    90280.255    526.16408   -247.01973    801.44994    554.43021    1200.1191   -247.01973            0   -5.8007096            0            0            0            0            0            0 
10007000    520.59971    88215.465    543.75578   -252.44193    828.24551    575.80358    1245.5718   -252.44193            0   -5.9364823            0            0            0            0            0            0 
10008000    470.16518     90521.22    535.47466   -248.13901    815.63176    567.49275    1188.1856   -248.13901            0   -5.7852683            0            0            0            0            0            0 
10009000    450.60111    85704.006    536.13636   -272.51096    816.63965    544.12869    1107.3373   -272.51096            0   -6.1104442            0            0            0            0            0            0 
10010000    458.25296    86942.944    523.57376   -267.22253    797.50437    530.28183    1111.3345   -267.22253            0   -6.0233703            0            0            0            0            0            0 
10011000    535.37436    90597.535    541.44092   -237.80051    824.71953    586.91902    1294.2942   -237.80051            0   -5.7803951            0            0            0            0            0            0 
10012000    453.56018    91803.486    528.36769   -247.12767    804.80647     557.6788    1164.9322   -247.12767            0   -5.7044625            0            0            0            0            0            0 
10013000    507.05473    90633.612    515.79822   -247.47205    785.66073    538.18868    1208.4127   -247.47205            0   -5.7780942            0            0            0            0            0            0 
10014000    539.50186     84963.65    521.91445   -258.45602    794.97693    536.52091    1205.0218   -258.45602            0   -6.1636894            0            0            0            0            0            0 
10015000    474.61538    92335.536    502.49892   -242.09345    765.40331    523.30986     1162.436   -242.09345            0   -5.6715926            0            0            0            0            0            0 
10016000    554.40672    86075.804    547.23604   -254.35611    833.54662    579.19051    1275.1524   -254.35611            0   -6.0840506            0            0            0            0            0            0 
10017000    437.63218      85999.2    538.48136   -273.74377    820.21154    546.46777    1095.3505   -273.74377            0   -6.0894699            0            0            0            0            0            0 
10018000    471.65317    87777.302    498.61278   -258.89166    759.48396    500.59229    1104.3753   -258.89166            0   -5.9661157            0            0            0            0            0            0 
10019000    482.02236    85853.032    515.11415   -257.63564    784.61875    526.98311    1130.5129   -257.63564            0   -6.0998375            0            0            0            0            0            0 
10020000    502.00536     83577.31    518.30438   -277.27613    789.47808    512.20195    1124.0909   -277.27613            0   -6.2659296            0            0            0            0            0            0 
10021000    491.76993    88138.271    521.99309   -257.33224    795.09672    537.76447    1169.8886   -257.33224            0   -5.9416816            0            0            0            0            0            0 
10022000    510.66528    90515.873     534.9265   -228.53278     814.7968    586.26401    1260.3836   -228.53278            0   -5.7856101            0            0            0            0            0            0 
10023000    479.65623    84218.934     481.4526     -272.577    733.34568    460.76868    1049.9049     -272.577            0   -6.2181925            0            0            0            0            0            0 
10024000    490.14131    92401.863    520.89605   -232.14575    793.42571    561.27996    1221.7877   -232.14575            0   -5.6675215            0            0            0            0            0            0 
10025000     519.6593    88790.747     514.7252   -253.34335     784.0263    530.68295    1203.6012   -253.34335            0   -5.8980194            0            0            0            0            0            0 
10026000    508.98318    87815.089    507.38629   -255.34914    772.84771    517.49858    1169.3498   -255.34914            0   -5.9635485            0            0            0            0            0            0 
10027000    465.04847      90396.6    520.83815   -250.00526    793.33751    543.33225     1156.425   -250.00526            0   -5.7932438            0            0            0            0            0            0 
10028000    547.14861    89537.644    526.16294   -240.22114     801.4482    561.22706    1275.7018   -240.22114            0   -5.8488198            0            0            0            0            0            0 
10029000    485.11119    92871.859    493.64886   -236.13434    751.92296    515.78862     1172.843   -236.13434            0   -5.6388399            0            0            0            0            0            0 
10030000    567.77845    86997.494    539.86702   -254.84979    822.32217    567.47239    1287.8522   -254.84979            0   -6.0195935            0            0            0            0            0            0 
10031000    594.97683    86264.558    529.31281   -243.62811    806.24606    562.61795    1311.1465   -243.62811            0   -6.0707382            0            0            0            0            0            0 
10032000    432.03859    89807.275    508.65676   -258.01159    774.78289     516.7713    1082.6325   -258.01159            0   -5.8312597            0            0            0            0            0            0 
10033000    443.80643    85692.076    542.42918   -283.57833    826.22484     542.6465    1097.2852   -283.57833            0   -6.1112949            0            0            0            0            0            0 
10034000    472.31834    88332.599    531.44719   -265.46496    809.49713    544.03217    1152.4917   -265.46496            0   -5.9286102            0            0            0            0            0            0 
10035000    403.45752    93654.818    490.79418   -246.80094    747.57472    500.77378    1051.8401   -246.80094            0   -5.5916989            0            0            0            0            0            0 
10036000    573.97417    84945.455    532.31088    -257.4228    810.81271    553.38991    1264.4534    -257.4228            0   -6.1650096            0            0            0            0            0            0 
10037000     493.6933     89521.23    515.33061    -247.9572    784.94845    536.99125     1181.545    -247.9572            0   -5.8498922            0            0            0            0            0            0 
10038000    587.85101    85911.237     516.4259    -247.0134    786.61681     539.6034     1276.138    -247.0134            0   -6.0957049            0            0            0            0            0            0 
10039000    487.75501    85735.664    512.52909   -257.81534    780.68121    522.86587    1132.7385   -257.81534            0   -6.1081879            0            0            0            0            0            0 
10040000    502.11428    89081.217    515.58361   -245.09749    785.33382    540.23633    1192.5622   -245.09749            0   -5.8787875            0            0            0            0            0            0 
10041000    557.81009    87663.688    522.97355   -245.41279    796.59014    551.17735    1264.3292   -245.41279            0    -5.973848            0            0            0            0            0            0 
10042000    458.38538     92125.72    569.69123   -246.68929    867.75023    621.06095    1236.9288   -246.68929            0   -5.6845096            0            0            0            0            0            0 
10043000    449.12231    85466.786    502.07189   -274.70221    764.75287    490.05066    1049.8571   -274.70221            0   -6.1274042            0            0            0            0            0            0 
10044000    473.22751    86412.861    483.79737   -255.52383    736.91723    481.39339     1077.775   -255.52383            0   -6.0603195            0            0            0            0            0            0 
10045000      540.558    81595.101    509.98779   -266.74851     776.8103    510.06179    1153.3155   -266.74851            0   -6.4181493            0            0            0            0            0            0 
10046000    436.63156    88621.116    545.70035   -260.81873    831.20746    570.38873    1134.7124   -260.81873            0   -5.9093089            0            0            0            0            0            0 
10047000    476.86518    86165.037    522.26006   -269.16006    795.50336    526.34331    1125.5858   -269.16006            0   -6.0777499            0            0            0            0            0            0 
10048000    457.07301    85364.813    508.88586   -274.01513    775.13186    501.11673    1070.1535   -274.01513            0   -6.1347237            0            0            0            0            0            0 
10049000    548.26039    81514.693    539.20904   -276.66314    821.31994     544.6568    1196.4332   -276.66314            0   -6.4244804            0            0            0            0            0            0 
10050000    501.57189    93214.717     509.2881   -234.58353    775.74455    541.16102    1223.0184   -234.58353            0   -5.6180994            0            0            0            0            0            0 
10051000    499.27214    91114.279    503.41892   -236.02821    766.80465    530.77644    1194.2134   -236.02821            0   -5.7476122            0            0            0            0            0            0 
10052000    553.39356    84062.334    521.39582   -257.64163    794.18696    536.54533    1214.9853   -257.64163            0   -6.2297764            0            0            0            0            0            0 
10053000    495.08963    88665.056    514.43744   -247.79097    783.58799    535.79703    1175.9919   -247.79097            0   -5.9063803            0            0            0            0            0            0 
10054000    448.64398    88043.719    511.54322   -262.55961    779.17953    516.61993    1092.6911   -262.55961            0   -5.9480625            0            0            0            0            0            0 
10055000    486.94245    87247.573     535.8294    -265.2509    816.17209    550.92119    1170.5147    -265.2509            0   -6.0023394            0            0            0            0            0            0 
10056000     457.8302    91495.836    523.82738   -244.93166    797.89069    552.95903    1163.8753   -244.93166            0   -5.7236435            0            0            0            0            0            0 
10057000    499.57507    86978.722    529.80895   -254.90886    807.00178    552.09292    1185.8016   -254.90886            0   -6.0208926            0            0            0            0            0            0 
10058000    477.97131    83040.547     508.5133   -282.06506    774.56437    492.49931    1071.3518   -282.06506            0   -6.3064318            0            0            0            0            0            0 
10059000    460.73996    91030.298    540.25553   -242.60318    822.91395    580.31077    1191.9816   -242.60318            0   -5.7529148            0            0            0            0            0            0 
10060000    588.71945    86111.065    518.66097   -250.43185    790.02124    539.58939    1278.9277   -250.43185            0   -6.0815592            0            0            0            0            0            0 
10061000    502.38776    85738.536    553.78116   -269.31542     843.5161    574.20068    1202.3907   -269.31542            0   -6.1079833            0            0            0            0            0            0 
10062000    523.09571    89753.546    518.69428   -248.51573    790.07198    541.55625    1226.2694   -248.51573            0   -5.8347505            0            0            0            0            0            0 
10063000    494.82931    90027.812    514.83954   -245.14579    784.20046    539.05467    1188.7474   -245.14579            0   -5.8169751            0            0            0            0            0            0 
10064000    508.11712    85603.492    520.43875   -267.54782    792.72915    525.18134    1159.5346   -267.54782            0    -6.117619            0            0            0            0            0            0 
10065000    498.86076     88735.57    512.19413   -238.78588      780.171    541.38511    1186.9694   -238.78588            0   -5.9016868            0            0            0            0            0            0 
10066000    462.88223     87130.35    533.09474   -268.45277    812.00668     543.5539    1131.7415   -268.45277            0   -6.0104148            0            0            0            0            0            0 
10067000    494.85366    86061.755     535.5944   -263.25537    815.81414    552.55877    1173.6607   -263.25537            0   -6.0850437            0            0            0            0            0            0 
10068000     401.4894    94902.955    517.69162   -241.14314    788.54474     547.4016    1103.0879   -241.14314            0   -5.5181585            0            0            0            0            0            0 
10069000    499.26865    84337.643    514.33207    -264.4126    783.42749    519.01489    1133.1044    -264.4126            0   -6.2094402            0            0            0            0            0            0 
10070000    509.36703    88403.123    476.16563   -242.36832     725.2926    482.92427    1139.6353   -242.36832            0   -5.9238806            0            0            0            0            0            0 
10071000    530.09332    88074.253    539.03697   -249.61252    821.05784    571.44532    1252.3357   -249.61252            0   -5.9460004            0            0            0            0            0            0 
10072000    477.52744     86848.76    538.77247   -256.89211    820.65496    563.76285    1168.5991   -256.89211            0   -6.0299024            0            0            0            0            0            0 
10073000    466.65268     85433.12    507.97717   -263.03569    773.74774    510.71205      1092.14   -263.03569            0   -6.1298188            0            0            0            0            0            0 
10074000    504.40304    92549.476    514.63891   -233.73246    783.89487    550.16242     1230.975   -233.73246            0    -5.658482            0            0            0            0            0            0 
10075000    446.05553    86364.671    532.43249   -265.16204    810.99794     545.8359    1107.6607   -265.16204            0   -6.0637011            0            0            0            0            0            0 
10076000    529.71638    83281.585    533.59918   -275.03696    812.77503    537.73806    1181.1191   -275.03696            0   -6.2881794            0            0            0            0            0            0 
10077000    447.08607    89896.216    533.15773   -256.54912    812.10262     555.5535    1141.7031   -256.54912            0   -5.8254904            0            0            0            0            0            0 
10078000    530.14324     85124.69    484.04824   -263.44948    737.29934    473.84986    1131.9995   -263.44948            0   -6.1520288            0            0            0            0            0            0 
10079000     567.9775    88719.141    543.23097   -237.93919    827.44611    589.50692    1324.4003   -237.93919            0   -5.9027797            0            0            0            0            0            0 
10080000    456.85129    87977.429    534.50863   -260.69243    814.16031    553.46788    1139.6357   -260.69243            0   -5.9525443            0            0            0            0            0            0 
10081000    452.95747    89982.182    512.75889   -250.18457    781.03124    530.84666    1125.2618   -250.18457            0    -5.819925            0            0            0            0            0            0 
10082000    559.22929    83306.521    509.71979   -265.66499    776.40209    510.73709    1190.1672   -265.66499            0   -6.2862971            0            0            0            0            0            0 
10083000    530.88823    88919.296     543.6576   -243.69831    828.09596    584.39765    1272.8518   -243.69831            0   -5.8894927            0            0            0            0            0            0 
10084000     473.5544    87639.438    552.45838   -257.96026    841.50126      583.541    1188.8057   -257.96026            0   -5.9755009            0            0            0            0            0            0 
10085000    502.39867    82746.699    512.14744   -268.48311    780.09988    511.61677    1117.8993   -268.48311            0    -6.328827            0            0            0            0            0            0 
10086000    485.64482    90214.849    519.57604   -260.20057    791.41507    531.21451     1170.173   -260.20057            0   -5.8049151            0            0            0            0            0            0 
10087000    460.16302    89969.317    520.56563   -253.14373    792.92242    539.77869    1143.5633   -253.14373            0   -5.8207572            0            0            0            0            0            0 
10088000    593.94493    82629.755    513.03969   -257.60922    781.45895    523.84973    1239.5951   -257.60922            0   -6.3377841            0            0            0            0            0            0 
10089000    553.22332    86046.184    540.73871   -253.18898    823.64992    570.46095    1264.6983   -253.18898            0   -6.0861449            0            0            0            0            0            0 
10090000    496.13656    87177.947    513.49802   -250.20849    782.15707    531.94858    1162.7371   -250.20849            0   -6.0071333            0            0            0            0            0            0 
10091000    508.26141    89500.868    532.20132   -244.70383    810.64582    565.94199    1229.3646   -244.70383            0   -5.8512231            0            0            0            0            0            0 
10092000    575.92847    86853.761    510.29522   -238.12065    777.27859    539.15794     1268.671   -238.12065            0   -6.0295552            0            0            0            0            0            0 
10093000    452.40907    89529.139    485.26219    -255.6732    739.14843    483.47524    1074.1815    -255.6732            0   -5.8493754            0            0            0            0            0            0 
10094000    509.73725    88219.383    506.34502   -251.85497    771.26166    519.40668    1175.2291   -251.85497            0   -5.9362186            0            0            0            0            0            0 
10095000    484.79284    82591.772    538.44915   -277.54933    820.16248    542.61315     1126.554   -277.54933            0   -6.3406987            0            0            0            0            0            0 
10096000    420.23991    90837.155     531.3239   -256.81071    809.30934    552.49863    1109.2185   -256.81071            0   -5.7651469            0            0            0            0            0            0 
10097000    540.76912    87341.575    505.34426   -246.14551    769.73731     523.5918    1212.4166   -246.14551            0   -5.9958793            0            0            0            0            0            0 
10098000    537.22101     89525.86    561.22522   -243.21435    854.85485     611.6405    1313.0593   -243.21435            0   -5.8495897            0            0            0            0            0            0 
10099000    430.80502    90685.629    540.17233     -254.951    822.78721    567.83621    1137.6004     -254.951            0   -5.7747799            0            0            0            0            0            0 
10100000    534.45647    83779.815    539.30746   -269.24005    821.46985     552.2298    1205.2515   -269.24005            0   -6.2507842            0            0            0            0            0            0 
10101000    452.63761    88668.584    488.18395   -255.56758    743.59883    488.03125    1073.3552   -255.56758            0   -5.9061454            0            0            0            0            0            0 
10102000    490.12261    89613.355     532.4014   -257.13071    810.95058    553.81987    1194.3704   -257.13071            0   -5.8438783            0            0            0            0            0            0 
10103000    546.28291    84641.776    520.44798    -267.9419    792.74321    524.80131    1199.1403    -267.9419            0   -6.1871285            0            0            0            0            0            0 
10104000    493.97647    86852.154    506.42272   -261.85402    771.38001    509.52599    1135.2211   -261.85402            0   -6.0296667            0            0            0            0            0            0 
10105000    525.12474    85551.077    505.96473   -254.57146    770.68241    516.11094    1171.2958   -254.57146            0   -6.1213671            0            0            0            0            0            0 
10106000    538.21045    91149.067    548.85302   -240.20247    836.00959    595.80712    1311.2587   -240.20247            0   -5.7454186            0            0            0            0            0            0 
10107000    482.92267    91315.777    538.52348   -250.12816     820.2757    570.14753    1213.2783   -250.12816            0   -5.7349295            0            0            0            0            0            0 
10108000    480.93059    88531.159    540.89485   -258.40364    823.88776    565.48412     1186.431   -258.40364            0   -5.9153134            0            0            0            0            0            0 
10109000    525.55867    87412.792    500.34323   -245.63022    762.11977    516.48955    1186.4854   -245.63022            0   -5.9909944            0            0            0            0            0            0 
10110000    550.98892    90332.681     536.5718   -242.83568    817.30291    574.46723    1300.3453   -242.83568            0   -5.7973431            0            0            0            0            0            0 
10111000    519.64193    85348.206    530.25269   -259.87481    807.67769    547.80288    1194.6095   -259.87481            0   -6.1359174            0            0            0            0            0            0 
10112000    426.39966    95394.188    513.06755   -243.53647    781.50138     537.9649    1131.1834   -243.53647            0   -5.4897427            0            0            0            0            0            0 
10113000    473.93173    88107.827    507.66599   -251.45276    773.27376      521.821    1130.8054   -251.45276            0   -5.9437347            0            0            0            0            0            0 
10114000    474.46428    88797.502    514.85185   -255.19646    784.21921    529.02275    1143.4637   -255.19646            0   -5.8975707            0            0            0            0            0            0 
10115000    451.33054    89151.106    528.46434   -260.67129    804.95368     544.2824    1131.0922   -260.67129            0   -5.8741789            0            0            0            0            0            0 
10116000     531.7142    87113.854    530.97227   -251.47733    808.77374    557.29641    1232.8213   -251.47733            0   -6.0115529            0            0            0            0            0            0 
10117000     404.6776    88645.904    518.40085   -273.37814    789.62502    516.24688     1039.418   -273.37814            0   -5.9076564            0            0            0            0            0            0 
10118000    433.23515    88486.494    520.68121   -259.04108    793.09846    534.05738    1093.1407   -259.04108            0   -5.9182992            0            0            0            0            0            0 
10119000    457.94011    83587.654    511.36304   -277.04263    778.90509    501.86246    1060.1099   -277.04263            0   -6.2651543            0            0            0            0            0            0 
10120000    470.91243    89535.624    481.81548   -233.75045    733.89842    500.14797    1115.0585   -233.75045            0   -5.8489518            0            0            0            0            0            0 
10121000    434.68001    88482.715    533.78409   -269.02901    813.05668    544.02767    1104.9516   -269.02901            0    -5.918552            0            0            0            0            0            0 
10122000    507.02294    87168.723    517.72995   -259.14965    788.60311    529.45347    1174.0147   -259.14965            0   -6.0077689            0            0            0            0            0            0 
10123000    434.12704    91014.489    510.77526   -251.22328    778.00978     526.7865    1103.0263   -251.22328            0    -5.753914            0            0            0            0            0            0 
10124000    451.80655    86960.784    505.11982   -264.98419    769.39545    504.41126    1077.4076   -264.98419            0   -6.0221346            0            0            0            0            0            0 
10125000    445.63703    90426.026    506.09108   -258.54792    770.87486    512.32694    1100.0201   -258.54792            0   -5.7913586            0            0            0            0            0            0 
10126000    527.33709    87515.092    531.71546   -247.44902    809.90576    562.45674    1235.5065   -247.44902            0   -5.9839913            0            0            0            0            0            0 
10127000    565.83387    87321.392    539.69206   -243.56388    822.05567    578.49179    1299.0772   -243.56388            0   -5.9972652            0            0            0            0            0            0 
10128000    439.33895    92819.251    506.67564   -243.51104    771.76526    528.25422    1122.9757   -243.51104            0   -5.6420359            0            0            0            0            0            0 
10129000    562.47822    84061.354    535.83994   -268.00979    816.18815    548.17836    1237.7478   -268.00979            0   -6.2298491            0            0            0            0            0            0 
10130000    506.90081    84533.081    532.36973   -270.05906    810.90235    540.84329    1165.7649   -270.05906            0   -6.1950841            0            0            0            0            0            0 
10131000    438.22422    90707.995    499.97455   -238.91146     761.5582    522.64674    1102.3661   -238.91146            0    -5.773356            0            0            0            0            0            0 
10132000    452.24797    86925.238    523.42301   -266.72616    797.27475    530.54859    1103.8703   -266.72616            0   -6.0245972            0            0            0            0            0            0 
10133000     401.2012    87272.182    518.50768   -267.40027    789.78775    522.38748    1033.0265   -267.40027            0   -6.0006468            0            0            0            0            0            0 
10134000     536.7089    86705.192    551.45497   -251.80693    839.97287    588.16594    1266.8377   -251.80693            0   -6.0398868            0            0            0            0            0            0 
10135000     569.8519    87540.594    541.18216    -247.2899    824.32539    577.03549    1304.5596    -247.2899            0    -5.982248            0            0            0            0            0            0 
10136000    470.55119    92977.248    518.72813   -232.68484    790.12354     557.4387    1195.4957   -232.68484            0   -5.6324483            0            0            0            0            0            0 
10137000    525.06653    84819.031    522.81476   -273.40345    796.34827    522.94481    1172.4514   -273.40345            0   -6.1741986            0            0            0            0            0            0 
10138000    596.43472    83987.172     524.6207   -256.84137    799.09906     542.2577    1272.8108   -256.84137            0   -6.2353516            0            0            0            0            0            0 
10139000    508.24281    90279.851     527.5831   -244.94859    803.61138    558.66279    1227.8351   -244.94859            0   -5.8007356            0            0            0            0            0            0 
10140000    462.85737    88564.684     491.6131   -258.43462    748.82209    490.38747    1088.2257   -258.43462            0   -5.9130742            0            0            0            0            0            0 
10141000    456.27943     85767.08     505.5904   -272.12538    770.11224    497.98686    1068.7125   -272.12538            0   -6.1059505            0            0            0            0            0            0 
10142000    511.02212    86394.696    524.46782   -263.42186     798.8662    535.44434     1179.321   -263.42186            0   -6.0615937            0            0            0            0            0            0 
10143000    542.15401    92395.047    536.42105   -225.86017    817.07329    591.21311    1321.7586   -225.86017            0   -5.6679396            0            0            0            0            0            0 
10144000     497.7932    87442.666     541.5016   -257.72501    824.81196    567.08694    1201.9035   -257.72501            0   -5.9889476            0            0            0            0            0            0 
10145000    563.91061    81305.923    494.13899   -261.19009    752.66951    491.47943     1160.144   -261.19009            0   -6.4409766            0            0            0            0            0            0 
10146000    485.81554    87584.742    517.31864   -258.43562    787.97662      529.541    1150.0895   -258.43562            0   -5.9792326            0            0            0            0            0            0 
10147000    492.25082    89266.726    529.10082   -245.88533    805.92316    560.03783    1200.8813   -245.88533            0   -5.8665706            0            0            0            0            0            0 
10148000     515.1839    87404.334     518.8843   -248.78754    790.36142    541.57388    1198.2801   -248.78754            0   -5.9915741            0            0            0            0            0            0 
10149000    420.85112    94014.758    512.34957   -235.07444    780.40775    545.33331     1122.366   -235.07444            0   -5.5702909            0            0            0            0            0            0 
10150000    490.02741    87816.425      535.887   -253.43472    816.25983    562.82511    1190.4093   -253.43472            0   -5.9634578            0            0            0            0            0            0 
10151000    466.48343    88470.707    494.44846   -252.61099    753.14089    500.52989    1102.4122   -252.61099            0   -5.9193553            0            0            0            0            0            0 
10152000    464.16895    86877.472    529.32137   -264.81834    806.25909    541.44075    1129.5515   -264.81834            0   -6.0279096            0            0            0            0            0            0 
10153000    436.43508    88806.578    531.50421   -265.11587    809.58398    544.46811    1109.7183   -265.11587            0    -5.896968            0            0            0            0            0            0 
10154000    481.52108    89377.762    538.22052   -249.71267    819.81423    570.10156    1197.7561   -249.71267            0   -5.8592823            0            0            0            0            0            0 
10155000    357.53973    101392.14    515.84124    -231.8016    785.72625    553.92465    1082.6188    -231.8016            0   -5.1649914            0            0            0            0            0            0 
10156000    550.35454    89324.944    540.19516   -240.56371    822.82199    582.25828    1299.2121   -240.56371            0   -5.8627469            0            0            0            0            0            0 
10157000    518.51535    85775.256    511.55126   -257.16735    779.19177    522.02442    1170.6582   -257.16735            0   -6.1053685            0            0            0            0            0            0 
10158000    495.30347    87254.675    490.90943   -250.95316    747.75027    496.79711    1127.0807   -250.95316            0   -6.0018509            0            0            0            0            0            0 
10159000    475.24099    90601.068    527.40457   -251.58103    803.33945    551.75841    1179.7056   -251.58103            0   -5.7801697            0            0            0            0            0            0 
10160000     491.7493    88896.966    530.52011   -255.82526    808.08501    552.25975    1189.7985   -255.82526            0   -5.8909721            0            0            0            0            0            0 
10161000    474.38949    87463.624    519.77373   -262.27704    791.71619    529.43914    1134.5548   -262.27704            0   -5.9875126            0            0            0            0            0            0 
10162000    463.45472    92096.552    530.02207   -241.10725     807.3264    566.21914    1188.7008   -241.10725            0     -5.68631            0            0            0            0            0            0 
10163000    496.85787    87015.754    503.57718   -257.06079     767.0457    509.98492    1140.5152   -257.06079            0   -6.0183303            0            0            0            0            0            0 
10164000    505.26524    89643.762    525.77958   -245.75975    800.86426    555.10451    1215.6692   -245.75975            0   -5.8418961            0            0            0            0            0            0 
10165000    530.78125    86260.357    533.87086   -255.67364    813.18885    557.51521     1225.248   -255.67364            0   -6.0710338            0            0            0            0            0            0 
10166000    465.44273    84334.295    517.41314    -270.1688    788.12055    517.95176    1090.4134    -270.1688            0   -6.2096866            0            0            0            0            0            0 
10167000    403.97075    89267.544    512.50241   -265.04595    780.64057    515.59462    1041.5143   -265.04595            0   -5.8665168            0            0            0            0            0            0 
10168000    445.86426    96639.705    514.33928   -224.16515    783.43847    559.27333    1187.6704   -224.16515            0   -5.4189895            0            0            0            0            0            0 
10169000    560.94057    85757.058    523.26278   -250.60591    797.03069    546.42477    1247.9812   -250.60591            0   -6.1066641            0            0            0            0            0            0 
10170000    478.43289    86543.498    528.13992   -271.06236    804.45952    533.39716    1137.2503   -271.06236            0   -6.0511715            0            0            0            0            0            0 
10171000    439.59488     89467.82    517.63044   -252.07795    788.45154    536.37359    1109.9554   -252.07795            0   -5.8533844            0            0            0            0            0            0 
10172000     535.7156     83403.75     538.9948   -263.66479    820.99361    557.32883    1208.9509   -263.66479            0   -6.2789688            0            0            0            0            0            0 
10173000     418.4902    89940.617    492.78836   -255.23411    750.61223    495.37812    1044.3082   -255.23411            0   -5.8226145            0            0            0            0            0            0 
10174000    420.07828    92094.461    512.38787   -252.97404     780.4661    527.49206    1091.7006   -252.97404            0   -5.6864391            0            0            0            0            0            0 
10175000    484.30218    81535.571    525.20864   -282.28788    799.99461    517.70673    1093.5966   -282.28788            0   -6.4228353            0            0            0            0            0            0 
10176000    430.05895    88868.584    528.98457   -264.45828    805.74609    541.28781    1098.6688   -264.45828            0   -5.8928535            0            0            0            0            0            0 
10177000    482.35589    87171.275    503.10415   -259.15262    766.32519    507.17257    1120.3934   -259.15262            0   -6.0075931            0            0            0            0            0            0 
10178000    498.85566    84286.807    507.80687   -270.10729    773.48835    503.38106    1116.5927   -270.10729            0   -6.2131852            0            0            0            0            0            0 
10179000    434.15364    92858.741    525.93786   -243.84817    801.10536    557.25719    1145.2095   -243.84817            0   -5.6396365            0            0            0            0            0            0 
10180000    548.98259    87871.447    482.80905   -250.40777    735.41182    485.00406    1188.5334   -250.40777            0   -5.9597237            0            0            0            0            0            0 
10181000      514.553    84681.731    519.21045   -263.19091    790.85821     527.6673    1163.1383   -263.19091            0   -6.1842092            0            0            0            0            0            0 
10182000    462.23178    92301.798    555.38298   -248.95548    845.95599    597.00051    1219.2232   -248.95548            0   -5.6736657            0            0            0            0            0            0 
10183000    400.76263    86132.141    489.93571   -270.53302     746.2671    475.73408    979.15163   -270.53302            0   -6.0800711            0            0            0            0            0            0 
10184000    501.34563    83964.584    501.03142   -268.92064    763.16802    494.24738    1108.1638   -268.92064            0    -6.237029            0            0            0            0            0            0 
10185000    473.04615    89610.478    528.11775   -247.96194    804.42575    556.46381    1174.6769   -247.96194            0    -5.844066            0            0            0            0            0            0 
10186000    474.36083    84457.939    581.58824   -285.68502    885.87168    600.18666    1184.4723   -285.68502            0   -6.2005958            0            0            0            0            0            0 
10187000    516.42302    85000.626    507.49337   -261.88849    773.01082    511.12234    1151.3046   -261.88849            0   -6.1610081            0            0            0            0            0            0 
10188000    464.57665    92958.647    519.82257   -232.77329    791.79059     559.0173    1188.8469   -232.77329            0   -5.6335754            0            0            0            0            0            0 
10189000     600.4583     86068.16    551.49421   -248.39196    840.03264    591.64068    1345.3454   -248.39196            0   -6.0845909            0            0            0            0            0            0 
10190000    508.64096    85815.958    528.47548   -262.07692    804.97065    542.89373    1179.4771   -262.07692            0   -6.1024728            0            0            0            0            0            0 
10191000    487.30426    90498.623     549.6529   -250.78544    837.22796    586.44252    1229.6011   -250.78544            0   -5.7867129            0            0            0            0            0            0 
10192000    515.94406    88010.789    520.81542    -245.4735    793.30289    547.82939    1210.0679    -245.4735            0   -5.9502881            0            0            0            0            0            0 
10193000    590.91056    80300.355    494.60181   -270.89423    753.37447    482.48025    1174.4946   -270.89423            0   -6.5216343            0            0            0            0            0            0 
10194000    528.15799    87560.173    529.73756   -254.41694    806.89305     552.4761    1226.9208   -254.41694            0   -5.9809103            0            0            0            0            0            0 
10195000     484.1657    90037.259    517.25303   -250.34141    787.87668    537.53527    1173.2938   -250.34141            0   -5.8163648            0            0            0            0            0            0 
10196000    429.34861    86806.979    494.67393   -272.17397    753.48433    481.31036    1024.8617   -272.17397            0   -6.0328046            0            0            0            0            0            0 
10197000    416.04178    90746.704    523.83313   -255.81779    797.89944    542.08165    1092.6911   -255.81779            0   -5.7708933            0            0            0            0            0            0 
10198000    483.03703    88513.564    525.40888   -251.08674    800.29962    549.21288    1172.7555   -251.08674            0   -5.9164892            0            0            0            0            0            0 
10199000     477.8232    84143.758    536.18293   -267.02298    816.71058     549.6876    1136.0485   -267.02298            0    -6.223748            0            0            0            0            0            0 
10200000    461.95199    87838.369    491.80992    -258.4137    749.12189    490.70819    1082.4837    -258.4137            0    -5.961968            0            0            0            0            0            0 
10201000    414.78597    89499.407    514.35791   -257.58628    783.46685    525.88057    1067.2829   -257.58628            0   -5.8513186            0            0            0            0            0            0 
10202000    538.21801    89400.942    527.66886    -233.8148    803.74201     569.9272    1271.6672    -233.8148            0   -5.8577632            0            0            0            0            0            0 
10203000    569.44607    82081.482    547.90684   -274.13208    834.56838     560.4363    1242.1055   -274.13208            0    -6.380118            0            0            0            0            0            0 
10204000    413.93522    94828.299    548.77963   -246.71076     835.8978    589.18703    1161.6485   -246.71076            0   -5.5225028            0            0            0            0            0            0 
10205000    458.82843    86545.726    562.31428   -282.04273    856.51371    574.47098    1153.5953   -282.04273            0   -6.0510157            0            0            0            0            0            0 
10206000    456.87272    88537.368    506.58655   -255.79577    771.62956    515.83379      1105.76   -255.79577            0   -5.9148985            0            0            0            0            0            0 
10207000    473.74119    87180.999    536.80037   -261.10746    817.65106     556.5436    1158.8797   -261.10746            0    -6.006923            0            0            0            0            0            0 
10208000    447.51495    88695.793    524.20115   -260.71757    798.46001    537.74243    1116.6196   -260.71757            0   -5.9043335            0            0            0            0            0            0 
10209000    418.16764    91156.132    519.37381    -257.8495    791.10704    533.25754    1089.1774    -257.8495            0   -5.7449733            0            0            0            0            0            0 
10210000    565.75234    80770.538    524.43059   -279.71173    798.80949    519.09776    1185.5288   -279.71173            0   -6.4836704            0            0            0            0            0            0 
10211000    449.57621    87437.764    517.54929   -262.53225    788.32794    525.79569    1099.0908   -262.53225            0   -5.9892833            0            0            0            0            0            0 
10212000    521.57947    87205.284    540.84828   -267.93964    823.81682    555.87717    1219.2217   -267.93964            0   -6.0052502            0            0            0            0            0            0 
10213000    450.19438    89713.989    520.09851   -257.69262    792.21089    534.51827    1123.5465   -257.69262            0   -5.8373231            0            0            0            0            0            0 
10214000    471.34922    87938.029    532.43799   -267.68614    811.00631    543.32017    1147.8189   -267.68614            0   -5.9552113            0            0            0            0            0            0 
10215000    569.49523    85711.044    526.14962   -259.21262    801.42791    542.21529    1254.0887   -259.21262            0   -6.1099424            0            0            0            0            0            0 
10216000    454.88369      94395.3    546.42269   -243.80007    832.30773    588.50767    1214.7272   -243.80007            0   -5.5478349            0            0            0            0            0            0 
10217000    432.54952    86483.246     490.2072   -272.74124    746.68064     473.9394    1019.5009   -272.74124            0   -6.0553873            0            0            0            0            0            0 
10218000    467.60696    88470.052    522.02369   -250.22142    795.14332     544.9219    1148.2494   -250.22142            0   -5.9193991            0            0            0            0            0            0 
10219000     479.3139    89850.545    545.29658    -256.2312    830.59245    574.36125    1202.4437    -256.2312            0   -5.8284515            0            0            0            0            0            0 
10220000     498.2469     90576.05    497.69706   -231.66931    758.08914    526.41983    1184.5834   -231.66931            0   -5.7817662            0            0            0            0            0            0 
10221000    556.49046    80130.855    517.15253   -279.27049     787.7236    508.45311    1158.7825   -279.27049            0   -6.5354294            0            0            0            0            0            0 
10222000    471.26157    89796.749    511.60242   -247.90863     779.2697    531.36107    1148.5221   -247.90863            0   -5.8319432            0            0            0            0            0            0 
10223000    531.40224    88106.173    508.68296   -241.67831    774.82281    533.14449    1215.9635   -241.67831            0   -5.9438462            0            0            0            0            0            0 
10224000    519.16543    85262.141    523.32306   -279.71165    797.12251    517.41086    1162.9728   -279.71165            0   -6.1421111            0            0            0            0            0            0 
10225000    496.53509    91960.311    512.32937   -237.61061    780.37699    542.76637    1208.6928   -237.61061            0   -5.6947344            0            0            0            0            0            0 
10226000    495.52699    86033.062    555.83365   -265.50467    846.64244    581.13777    1202.8775   -265.50467            0   -6.0870732            0            0            0            0            0            0 
10227000    565.12201    85126.269    515.65584   -249.94668    785.44385    535.49716    1237.0845   -249.94668            0   -6.1519147            0            0            0            0            0            0 
10228000    481.55605     91027.51    515.14071   -242.32564     784.6592    542.33357    1181.6199   -242.32564            0    -5.753091            0            0            0            0            0            0 
10229000     471.9242    88336.323    529.10027   -260.05264    805.92233    545.86969    1153.8471   -260.05264            0   -5.9283603            0            0            0            0            0            0 
10230000    531.91787    82642.415    568.84928   -280.92233    866.46777    585.54544     1226.642   -280.92233            0   -6.3368132            0            0            0            0            0            0 
10231000    445.86196    91064.871    504.53319   -252.71917     768.5019    515.78273    1107.9265   -252.71917            0   -5.7507306            0            0            0            0            0            0 
10232000    584.85644    86219.553    549.26531   -247.83158     836.6376    588.80601    1324.2184   -247.83158            0    -6.073907            0            0            0            0            0            0 
10233000    456.52903    87301.915    549.17989   -258.67408    836.50748     577.8334    1159.0902   -258.67408            0   -5.9986032            0            0            0            0            0            0 
10234000    535.25413    84877.825    484.19093   -259.44065    737.51669    478.07603    1140.6436   -259.44065            0   -6.1699218            0            0            0            0            0            0 
10235000    515.52635    91989.508    533.39781   -231.74538    812.46831    580.72293     1272.339   -231.74538            0   -5.6929269            0            0            0            0            0            0 
10236000    682.51606    83083.812    548.09217   -252.18577    834.85066     582.6649    1409.6643   -252.18577            0   -6.3031478            0            0            0            0            0            0 
10237000    403.66964    91798.142     528.5042   -262.02142     805.0144    542.99298    1083.4185   -262.02142            0   -5.7047946            0            0            0            0            0            0 
10238000    564.62335    87507.739    516.26691   -244.42321    786.37463    541.95142    1262.5297   -244.42321            0    -5.984494            0            0            0            0            0            0 
10239000    477.07835    88056.403      526.587   -255.85715    802.09412    546.23697    1158.9069   -255.85715            0   -5.9472057            0            0            0            0            0            0 
10240000     428.6852    84951.222    511.15616     -275.332    778.58996    503.25796    1034.3674     -275.332            0   -6.1645911            0            0            0            0            0            0 
10241000    521.73979    85132.479    516.11796   -261.73797    786.14774    524.40977    1172.1862   -261.73797            0    -6.151466            0            0            0            0            0            0 
10242000    557.54045    91358.136    556.10335    -230.3929    847.05325    616.66035    1359.5076    -230.3929            0   -5.7322705            0            0            0            0            0            0 
10243000    515.00521     86534.25    532.73707   -253.67294    811.46187    557.78893    1207.7323   -253.67294            0   -6.0518182            0            0            0            0            0            0 
10244000    491.49562    84122.297    508.27275   -266.89391    774.19797    507.30405    1110.2893   -266.89391            0   -6.2253358            0            0            0            0            0            0 
10245000    449.36437    94560.989    514.02354   -240.60557    782.95753    542.35196    1162.0591   -240.60557            0   -5.5381141            0            0            0            0            0            0 
10246000    496.04651    88295.461    516.67199    -246.7714    786.99164    540.22024    1178.9787    -246.7714            0   -5.9311038            0            0            0            0            0            0 
10247000    409.98526    89767.674    476.23167     -261.282    725.39319    464.11118    1000.8514     -261.282            0   -5.8338322            0            0            0            0            0            0 
10248000    517.20641    84080.467      513.977   -265.95352    782.88665    516.93313    1151.1458   -265.95352            0   -6.2284329            0            0            0            0            0            0 
10249000    546.08602    87076.227    550.38838   -253.17478    838.34825    585.17347    1278.6576   -253.17478            0   -6.0141506            0            0            0            0            0            0 
10250000    511.30354    87034.408    543.82218   -260.87034    828.34665    567.47631    1216.4778   -260.87034            0   -6.0170404            0            0            0            0            0            0 
10251000    465.40765    86896.377    531.89313   -269.78047    810.17639    540.39592    1130.2045   -269.78047            0   -6.0265981            0            0            0            0            0            0 
10252000    432.55704    89419.975    513.65558    -254.0661    782.39706    528.33096     1092.428    -254.0661            0   -5.8565163            0            0            0            0            0            0 
10253000     514.8718    84676.691    551.51044   -274.98168    840.05735    565.07567    1200.9025   -274.98168            0   -6.1845774            0            0            0            0            0            0 
10254000    464.50372    94905.173    513.30813   -234.41252    781.86783    547.45531    1190.3724   -234.41252            0   -5.5180295            0            0            0            0            0            0 
10255000    496.90473    87251.553    498.99098   -247.33576    760.06004    512.72428    1145.0228   -247.33576            0   -6.0020656            0            0            0            0            0            0 
10256000    478.46896    90031.457    513.21864   -239.30764    781.73152    542.42388    1170.6615   -239.30764            0   -5.8167397            0            0            0            0            0            0 
10257000    486.04935    90855.464     548.8009   -249.95143    835.93021    585.97878    1230.0106   -249.95143            0   -5.7639851            0            0            0            0            0            0 
10258000    545.47062    86129.177    570.60663   -265.62089    869.14456    603.52367    1288.6924   -265.62089            0   -6.0802804            0            0            0            0            0            0 
10259000    522.78702    87573.151    511.04407   -249.14995    778.41923    529.26928    1196.9543   -249.14995            0    -5.980024            0            0            0            0            0            0 
10260000     550.9915     81545.16    514.31302    -271.9042    783.39848    511.49428    1166.7623    -271.9042            0     -6.42208            0            0            0            0            0            0 
10261000    487.65372    90025.134    522.70303   -251.75289    796.17809     544.4252    1184.6776   -251.75289            0   -5.8171482            0            0            0            0            0            0 
10262000    556.66511    85857.837    509.40709   -256.58676    775.92579    519.33903    1216.3664   -256.58676            0   -6.0994962            0            0            0            0            0            0 
10263000    496.34555    88073.977    506.32753   -255.39554    771.23503    515.83949    1153.3798   -255.39554            0   -5.9460191            0            0            0            0            0            0 
10264000    497.98279    85387.105    548.36102   -269.47046    835.26018    565.78972    1185.9194   -269.47046            0   -6.1331221            0            0            0            0            0            0 
10265000    512.61474    89263.864    504.69929    -244.5223    768.75491     524.2326    1191.5657    -244.5223            0   -5.8667586            0            0            0            0            0            0 
10266000    509.36038    91319.265    502.85086   -240.33328    765.93938     525.6061    1203.9711   -240.33328            0   -5.7347105            0            0            0            0            0            0 
10267000    486.77402    87059.555    526.46672   -259.83886    801.91091    542.07206    1160.1165   -259.83886            0   -6.0153023            0            0            0            0            0            0 
10268000    554.09518    85483.154    535.83938   -252.63813    816.18729    563.54916    1254.3308   -252.63813            0    -6.126231            0            0            0            0            0            0 
10269000    502.47619    88701.632    549.78956   -248.03574    837.43613    589.40038    1239.4148   -248.03574            0   -5.9039449            0            0            0            0            0            0 
10270000    467.11688    87081.728    497.65024   -254.82001    758.01782    503.19781    1096.4352   -254.82001            0   -6.0137707            0            0            0            0            0            0 
10271000    610.23673    80454.481    533.17146   -271.58639    812.12353    540.53714     1256.556   -271.58639            0   -6.5091408            0            0            0            0            0            0 
10272000    425.72464    92343.703    518.41687   -250.96646    789.64944    538.68298    1112.0226   -250.96646            0    -5.671091            0            0            0            0            0            0 
10273000     449.0925    85205.482    485.39671   -270.37475    739.35332    468.97857    1027.0364   -270.37475            0   -6.1461955            0            0            0            0            0            0 
10274000    497.77791    88807.098    519.02583   -250.36146    790.57699    540.21553    1184.9178   -250.36146            0   -5.8969334            0            0            0            0            0            0 
10275000    446.84877     93416.63    523.65269   -244.19393     797.6246    553.43067    1162.2111   -244.19393            0   -5.6059563            0            0            0            0            0            0 
10276000    536.96663    88440.277    517.76564   -251.04771    788.65749    537.60978    1230.1951   -251.04771            0    -5.921392            0            0            0            0            0            0 
10277000    408.70544    88971.762    500.93553   -263.63303    763.02195    499.38893    1029.7095   -263.63303            0   -5.8860197            0            0            0            0            0            0 
10278000    563.15486    84787.457    552.88252   -263.31117     842.1473    578.83612    1275.1986   -263.31117            0   -6.1764978            0            0            0            0            0            0 
10279000    423.65773    87717.279    502.28877   -262.84719     765.0832    502.23602    1044.2072   -262.84719            0   -5.9701982            0            0            0            0            0            0 
10280000    455.43824    93758.962    546.40354   -245.02022    832.27855    587.25833    1210.0147   -245.02022            0   -5.5854879            0            0            0            0            0            0 
10281000    610.26338    84137.114    522.55228   -257.04477    795.94847     538.9037    1287.7295   -257.04477            0   -6.2242395            0            0            0            0            0            0 
10282000    493.94202    86761.167    521.19227   -259.95703    793.87691    533.91987    1158.9159   -259.95703            0   -6.0359901            0            0            0            0            0            0 
10283000    538.13863    85868.966    509.76315   -253.24919    776.46814    523.21895    1197.1358   -253.24919            0   -6.0987056            0            0            0            0            0            0 
10284000    472.49282    86010.874    508.44665   -267.42817    774.46285    507.03468    1099.7204   -267.42817            0   -6.0886434            0            0            0            0            0            0 
10285000    504.94587    85126.957    515.39253   -258.75354    785.04277    526.28923    1153.1742   -258.75354            0    -6.151865            0            0            0            0            0            0 
10286000    451.88128    91684.062    534.10315   -253.69133    813.54268    559.85136    1164.0699   -253.69133            0   -5.7118929            0            0            0            0            0            0 
10287000    479.37563    82651.535    509.05472   -287.67709    775.38906    487.71196    1065.5455   -287.67709            0   -6.3361139            0            0            0            0            0            0 
10288000    406.85499    89138.139    505.30432    -260.3849    769.67648    509.29158    1038.1983    -260.3849            0   -5.8750334            0            0            0            0            0            0 
10289000    515.34135    86391.098    513.61888   -261.11908    782.34116    521.22209    1170.5138   -261.11908            0   -6.0618462            0            0            0            0            0            0 
10290000    517.85228    87731.939    531.77139   -247.84612    809.99095    562.14483    1224.7267   -247.84612            0   -5.9692006            0            0            0            0            0            0 
10291000    477.55982    88199.048    529.50613   -250.29554    806.54053    556.24499    1170.5267   -250.29554            0   -5.9375873            0            0            0            0            0            0 
10292000    509.04851     86448.67    508.87845   -247.20455    775.12056    527.91601    1169.7066   -247.20455            0   -6.0578091            0            0            0            0            0            0 
10293000    482.36436    86962.498    531.02034   -257.16355    808.84696    551.68341    1163.4463   -257.16355            0   -6.0220159            0            0            0            0            0            0 
10294000    618.60497    87928.218    544.24928   -235.70244    828.99721    593.29477    1386.5584   -235.70244            0   -5.9558758            0            0            0            0            0            0 
10295000    414.03033    93804.855    561.05403   -261.17516    854.59409    593.41893    1159.8321   -261.17516            0   -5.5827552            0            0            0            0            0            0 
10296000    498.24101      84188.4    515.47468   -268.85379     785.1679    516.31411    1128.0551   -268.85379            0   -6.2204478            0            0            0            0            0            0 
10297000    448.14012    91902.851    474.38947   -234.86091    722.58716    487.72625    1088.3724   -234.86091            0   -5.6982949            0            0            0            0            0            0 
10298000    490.35474    87493.391    519.49872   -262.90593     791.2973    528.39137    1154.0847   -262.90593            0   -5.9854754            0            0            0            0            0            0 
10299000    492.65955    88845.068    525.12711   -255.25347    799.87042    544.61696    1182.9629   -255.25347            0   -5.8944132            0            0            0            0            0            0 
10300000    463.26629    90576.004    489.25575   -237.44306     745.2314    507.78834    1119.7437   -237.44306            0   -5.7817692            0            0            0            0            0            0 
10301000    553.36666    81732.777    511.53216   -278.92372    779.16268    500.23896    1159.8458   -278.92372            0   -6.4073382            0            0            0            0            0            0 
10302000    513.32574    87075.105    523.57296   -255.83749    797.50316    541.66567    1193.5386   -255.83749            0   -6.0142281            0            0            0            0            0            0 
10303000    478.26341    88124.733    510.41657   -254.58109    777.46342    522.88233    1137.5507   -254.58109            0   -5.9425944            0            0            0            0            0            0 
10304000    424.51059    88896.037    502.19559   -256.65555    764.94128    508.28572    1058.6457   -256.65555            0   -5.8910337            0            0            0            0            0            0 
10305000    462.06124    89428.793    524.68125   -258.62329     799.1913    540.56802    1143.2009   -258.62329            0   -5.8559389            0            0            0            0            0            0 
10306000    532.13239    85782.848    515.74719   -258.41922      785.583    527.16378    1192.8906   -258.41922            0   -6.1048282            0            0            0            0            0            0 
10307000    446.70745    88182.832    512.16424   -258.55165    780.12547    521.57382    1096.0647   -258.55165            0   -5.9386791            0            0            0            0            0            0 
10308000    448.86875     86630.09    499.25284   -261.85894    760.45889    498.59996    1065.7057   -261.85894            0    -6.045123            0            0            0            0            0            0 
10309000      517.675    88960.457    514.43704   -243.41849    783.58737    540.16888    1211.7989   -243.41849            0   -5.8867677            0            0            0            0            0            0 
10310000    474.28579    91339.822    527.86084    -245.9227    804.03443    558.11174    1189.9067    -245.9227            0   -5.7334198            0            0            0            0            0            0 
10311000    575.89959    88304.067    532.26358   -241.47936    810.74065    569.26129    1310.9187   -241.47936            0   -5.9305258            0            0            0            0            0            0 
10312000    517.94551    88692.235    508.48235    -239.4457    774.51723    535.07154    1205.0264    -239.4457            0   -5.9045704            0            0            0            0            0            0 
10313000    451.44617    93520.206    519.86715   -230.92982    791.85849    560.92867    1176.6544   -230.92982            0   -5.5997476            0            0            0            0            0            0 
10314000    451.97266    86110.337    492.03956   -256.45288    749.47168     493.0188    1060.6201   -256.45288            0   -6.0816107            0            0            0            0            0            0 
10315000    485.15252    86007.106    503.96509   -264.23815    767.63656    503.39842    1111.9376   -264.23815            0   -6.0889102            0            0            0            0            0            0 
10316000    498.21285     88833.59    531.25748   -244.85467    809.20817    564.35351    1209.8116   -244.85467            0   -5.8951749            0            0            0            0            0            0 
10317000    473.12237    86027.565    518.05918   -265.49861    789.10461      523.606    1117.1966   -265.49861            0   -6.0874621            0            0            0            0            0            0 
10318000    517.26416    87236.049    474.87878   -249.14072    723.33248    474.19176    1132.2802   -249.14072            0   -6.0031323            0            0            0            0            0            0 
10319000    531.77621    89012.699    528.25853   -237.47391    804.64019    567.16628    1257.4963   -237.47391            0   -5.8833127            0            0            0            0            0            0 
10320000    525.32689    89398.729    550.71662   -247.87682    838.84822     590.9714    1275.8867   -247.87682            0   -5.8579082            0            0            0            0            0            0 
10321000     501.4042    91080.057    545.62758   -239.74995    831.09662    591.34667    1257.3665   -239.74995            0   -5.7497718            0            0            0            0            0            0 
10322000    562.79465    82974.877    494.76358   -264.16676    753.62088    489.45411    1170.4939   -264.16676            0    -6.311423            0            0            0            0            0            0 
10323000    482.29069    87940.901    519.15888   -262.13857    790.77965    528.64108    1147.1923   -262.13857            0   -5.9550168            0            0            0            0            0            0 
10324000    454.57887    94026.249    527.37541    -240.8379    803.29503    562.45714    1185.8104    -240.8379            0   -5.5696101            0            0            0            0            0            0 
10325000    568.26497    84745.624    492.12899   -259.54984    749.60789    490.05805    1192.3926   -259.54984            0   -6.1795467            0            0            0            0            0            0 
10326000    547.57682    89592.951    548.34643   -243.96176    835.23796     591.2762    1306.7517   -243.96176            0   -5.8452092            0            0            0            0            0            0 
10327000    446.41696    89955.922    527.55885   -256.37087    803.57444    547.20357    1132.8646   -256.37087            0   -5.8216239            0            0            0            0            0            0 
10328000    457.30998    86354.199    496.78959   -262.32174    756.70689    494.38515    1070.3156   -262.32174            0   -6.0644364            0            0            0            0            0            0 
10329000    646.43483    79762.383    523.56837   -269.57896    797.49617     527.9172    1279.8842   -269.57896            0   -6.5656206            0            0            0            0            0            0 
10330000     485.4612    90322.148    541.75983    -245.2751    825.20528    579.93018    1219.4068    -245.2751            0   -5.7980192            0            0            0            0            0            0 
10331000     483.5952    88592.549    509.74031   -248.51877    776.43335    527.91458    1152.7348   -248.51877            0   -5.9112143            0            0            0            0            0            0 
10332000    398.70176     89857.34    519.30077   -267.32705    790.99578    523.66873    1046.1583   -267.32705            0   -5.8280108            0            0            0            0            0            0 
10333000    405.84467    92661.284    497.94089   -243.58276    758.46054    514.87778     1063.324   -243.58276            0   -5.6516543            0            0            0            0            0            0 
10334000    580.84715    83735.459    515.29851   -263.72843    784.89957    521.17114    1230.4992   -263.72843            0   -6.2540954            0            0            0            0            0            0 
10335000    464.91697    91027.703    541.17942   -254.81097    824.32121    569.51024    1186.7088   -254.81097            0   -5.7530787            0            0            0            0            0            0 
10336000    505.28845    88201.374    497.49111    -250.5521    757.77544    507.22334    1157.1893    -250.5521            0   -5.9374307            0            0            0            0            0            0 
10337000    454.39648    84314.047    509.98639   -278.14093    776.80818    498.66725    1057.4086   -278.14093            0   -6.2111779            0            0            0            0            0            0 
10338000     492.4081    90530.935    542.43909   -250.29403    826.23993     575.9459    1226.0727   -250.29403            0   -5.7846475            0            0            0            0            0            0 
10339000    598.57535    87249.683    534.08245   -240.20296    813.51114    573.30818    1334.9637   -240.20296            0   -6.0021943            0            0            0            0            0            0 
10340000    508.23516     86848.04    539.71778   -269.83091    822.09485    552.26394    1195.9893   -269.83091            0   -6.0299524            0            0            0            0            0            0 
10341000    490.22553    87717.938    536.89959   -266.06424    817.80219    551.73795    1178.8718   -266.06424            0   -5.9701534            0            0            0            0            0            0 
10342000    466.58042    88379.994    484.41874   -255.69368    737.86369    482.17001    1083.5602   -255.69368            0   -5.9254309            0            0            0            0            0            0 
10343000    496.82018    90909.572    533.69503    -244.7121    812.92103    568.20893    1226.9045    -244.7121            0   -5.7605545            0            0            0            0            0            0 
10344000    586.71165    85496.035    525.69072   -254.19878    800.72892    546.53014    1278.0844   -254.19878            0    -6.125308            0            0            0            0            0            0 
10345000    377.65926    91385.533    496.34022    -255.8254    756.02242    500.19702    1003.5278    -255.8254            0   -5.7305519            0            0            0            0            0            0 
10346000    481.69486    85837.353    514.82606   -266.44863    784.17993     517.7313    1120.7409   -266.44863            0   -6.1009517            0            0            0            0            0            0 
10347000    529.38949    87424.608    508.82413   -240.03155    775.03782    535.00627    1209.9769   -240.03155            0   -5.9901846            0            0            0            0            0            0 
10348000     536.5499    91563.501    558.57124   -232.72111    850.81232    618.09121    1334.5783   -232.72111            0   -5.7194138            0            0            0            0            0            0 
10349000    448.58251    83659.685    523.99902   -289.78476    798.15214    508.36738    1055.6787   -289.78476            0   -6.2597599            0            0            0            0            0            0 
10350000     553.0825    85313.633    550.99167   -263.14619    839.26717    576.12098    1264.2728   -263.14619            0    -6.138404            0            0            0            0            0            0 
10351000    449.23699    89653.533    544.08361   -255.56337    828.74485    573.18148     1160.561   -255.56337            0   -5.8412594            0            0            0            0            0            0 
10352000     399.0369     88158.36    462.16197   -266.01771    703.96231     437.9446    950.98604   -266.01771            0   -5.9403277            0            0            0            0            0            0 
10353000    509.40471    86952.013    510.68227   -254.85453    777.86813     523.0136    1168.9927   -254.85453            0    -6.022742            0            0            0            0            0            0 
[...]
14939000     460.7318    85390.441    517.75432    -274.6141    788.64025    514.02614    1087.7902    -274.6141            0   -6.1328825            0            0            0            0            0            0 
14940000    473.97742    82828.639    473.47658   -283.95993    721.19666    437.23673    1009.7876   -283.95993            0   -6.3225661            0            0            0            0            0            0 
14941000    482.67724    87655.458     548.1677   -256.46474    834.96571    578.50097    1195.5386   -256.46474            0   -5.9744088            0            0            0            0            0            0 
14942000    460.95069    90685.954     500.8576    -248.3622    762.90326    514.54106    1124.1767    -248.3622            0   -5.7747592            0            0            0            0            0            0 
14943000     503.3899    83347.086    497.08663   -263.16507    757.15933    493.99426    1105.8807   -263.16507            0   -6.2832376            0            0            0            0            0            0 
14944000    522.12684    87846.577    532.97462    -253.9131    811.82371    557.91061    1226.8346    -253.9131            0   -5.9614109            0            0            0            0            0            0 
14945000    498.23865    87133.942    536.96472   -256.05971    817.90141     561.8417     1194.983   -256.05971            0    -6.010167            0            0            0            0            0            0 
14946000    431.08637    89608.256    502.53548   -255.37297    765.45899    510.08602    1073.4489   -255.37297            0   -5.8442109            0            0            0            0            0            0 
14947000    598.33055    85026.238    524.49988   -247.77676    798.91503    551.13828    1293.0804   -247.77676            0   -6.1591522            0            0            0            0            0            0 
14948000    463.18444    85173.327    512.62307   -265.10169    780.82435    515.72265    1091.0744   -265.10169            0   -6.1485158            0            0            0            0            0            0 
14949000    416.42918     87585.57    501.90352   -272.20588    764.49639    492.29051    1024.2145   -272.20588            0   -5.9791761            0            0            0            0            0            0 
14950000    430.85458    90314.386    546.73526   -256.48464    832.78383    576.29919    1143.7961   -256.48464            0   -5.7985175            0            0            0            0            0            0 
14951000    516.83782    86399.396    549.49254   -264.41507    836.98371    572.56864    1223.8084   -264.41507            0   -6.0612639            0            0            0            0            0            0 
14952000     515.5153    88500.548    497.26696   -242.97613    757.43402    514.45789    1179.8282   -242.97613            0   -5.9173593            0            0            0            0            0            0 
14953000    416.36761    93007.576    486.12948   -243.46078    740.46947    497.00869    1061.7781   -243.46078            0   -5.6306117            0            0            0            0            0            0 
14954000       507.11    83682.231    511.72083   -269.42761    779.45006    510.02245    1128.9094   -269.42761            0   -6.2580734            0            0            0            0            0            0 
14955000    506.72761    86088.321    552.58241   -276.08273    841.69018    565.60745     1201.809   -276.08273            0    -6.083166            0            0            0            0            0            0 
14956000    469.84571    93571.381    495.14518   -232.84252    754.20214    521.35962    1162.5311   -232.84252            0    -5.596685            0            0            0            0            0            0 
14957000    526.92904    87108.284    502.46459   -247.89328    765.35102    517.45774    1186.8605   -247.89328            0   -6.0119374            0            0            0            0            0            0 
14958000    548.22393    83825.289    529.29031   -259.98154    806.21178    546.23025    1216.4372   -259.98154            0   -6.2473932            0            0            0            0            0            0 
14959000    447.93491     86657.93    522.33123   -261.80843    795.61176    533.80333    1099.9111   -261.80843            0   -6.0431809            0            0            0            0            0            0 
14960000    486.43434    86846.049     512.6782   -260.41058    780.90832    520.49775    1136.5963   -260.41058            0   -6.0300906            0            0            0            0            0            0 
14961000    476.40551    87111.528    519.90919   -261.59542    791.92253    530.32711    1135.5681   -261.59542            0   -6.0117134            0            0            0            0            0            0 
14962000    519.50596    87795.161     526.6089   -251.58035    802.12748    550.54713    1215.7238   -251.58035            0   -5.9649022            0            0            0            0            0            0 
14963000    428.95669    88617.335    523.54527   -270.86701    797.46098    526.59397    1080.9746   -270.86701            0    -5.909561            0            0            0            0            0            0 
14964000     573.4621     82043.11    503.09029   -268.93387    766.30407     497.3702     1183.526   -268.93387            0   -6.3831021            0            0            0            0            0            0 
14965000    524.75399    88325.227    512.10053   -245.42684    780.02841    534.60157    1210.5544   -245.42684            0    -5.929105            0            0            0            0            0            0 
14966000    565.39202     87801.55    561.51268   -249.09416    855.29271    606.19854    1330.1805   -249.09416            0   -5.9644681            0            0            0            0            0            0 
14967000     465.3395    89687.967    506.94422    -250.4775    772.17435    521.69685    1130.3642    -250.4775            0   -5.8390168            0            0            0            0            0            0 
14968000    446.47852    89135.802    539.13764   -258.35496    821.21119    562.85623    1143.2579   -258.35496            0   -5.8751874            0            0            0            0            0            0 
14969000    562.36961    85390.775    518.60049   -247.96914    789.92912    541.95999    1242.2996   -247.96914            0   -6.1328586            0            0            0            0            0            0 
14970000    464.54965    89095.299    511.67083   -255.72129    779.37391    523.65261    1127.2715   -255.72129            0   -5.8778583            0            0            0            0            0            0 
14971000     434.2597    89107.465    510.12218   -260.51211    777.01501    516.50289    1080.8412   -260.51211            0   -5.8770558            0            0            0            0            0            0 
14972000    490.25009    83356.609     516.3073   -271.81208    786.43615    514.62407    1110.6067   -271.81208            0   -6.2825198            0            0            0            0            0            0 
14973000    503.68249     87153.14    541.23189    -256.5265    824.40113    567.87463    1208.0748    -256.5265            0   -6.0088431            0            0            0            0            0            0 
14974000    560.15781      88476.9    527.90648   -237.67235    804.10395     566.4316    1289.2283   -237.67235            0   -5.9189409            0            0            0            0            0            0 
14975000    490.16986    87631.143    499.34148   -263.12971    760.59391     497.4642    1123.9064   -263.12971            0   -5.9760666            0            0            0            0            0            0 
14976000    445.54365     89665.74    506.27486   -254.59485    771.15479    516.55994    1099.1897   -254.59485            0   -5.8404642            0            0            0            0            0            0 
14977000    583.09162    85467.275    549.18755   -267.11355    836.51915     569.4056    1296.2016   -267.11355            0   -6.1273692            0            0            0            0            0            0 
14978000    491.13217    87052.514    513.44629   -256.24272    782.07827    525.83555     1149.363   -256.24272            0   -6.0157889            0            0            0            0            0            0 
14979000    468.36647    91629.441    512.19949   -244.80273    780.17916    535.37642    1161.2646   -244.80273            0   -5.7152978            0            0            0            0            0            0 
14980000    474.79237    87084.772    512.08441   -260.52554    780.00386    519.47832    1122.4846   -260.52554            0   -6.0135605            0            0            0            0            0            0 
14981000     474.5203    85953.617    501.65594   -269.39771    764.11928    494.72157    1089.5543   -269.39771            0   -6.0926993            0            0            0            0            0            0 
14982000    444.66381    91922.454    531.75814    -257.6138    809.97077    552.35698    1148.4709    -257.6138            0   -5.6970797            0            0            0            0            0            0 
14983000    517.29623    84039.661    522.92285   -269.05535    796.51292    527.45757    1161.4725   -269.05535            0   -6.2314571            0            0            0            0            0            0 
14984000    508.69505    86123.617    510.21056   -263.68812    777.14963    513.46151     1152.395   -263.68812            0   -6.0806729            0            0            0            0            0            0 
14985000     535.2892    88493.167    558.22546   -254.47356    850.28564    595.81208    1286.6467   -254.47356            0   -5.9178529            0            0            0            0            0            0 
14986000    551.29736     93274.19    515.23192   -218.72178    784.79814    566.07636    1316.0108   -218.72178            0   -5.6145172            0            0            0            0            0            0 
14987000     632.0489    85542.211    565.36066   -246.70552    861.15393    614.44841    1402.9581   -246.70552            0   -6.1220015            0            0            0            0            0            0 
14988000    442.08232    88300.034    510.64982   -264.19313    777.81871    513.62558    1082.9239   -264.19313            0   -5.9307966            0            0            0            0            0            0 
14989000    534.80559    84382.861    517.72928   -261.17953     788.6021    527.42257    1185.5744   -261.17953            0   -6.2061127            0            0            0            0            0            0 
14990000    437.14655    87083.507    535.75064   -266.68824    816.05212    549.36388    1104.5503   -266.68824            0   -6.0136479            0            0            0            0            0            0 
14991000    509.70146    86674.974    516.68491   -254.42671    787.01133    532.58462    1176.8807   -254.42671            0   -6.0419925            0            0            0            0            0            0 
14992000    473.12618     89833.08    505.03597   -247.21086    769.26773    522.05687    1141.9105   -247.21086            0   -5.8295846            0            0            0            0            0            0 
14993000    474.41306    88000.344    513.04133   -253.49168    781.46145    527.96977     1136.829   -253.49168            0   -5.9509943            0            0            0            0            0            0 
14994000    510.65515    84603.978    546.66073   -266.73877    832.67031    565.93154    1196.0097   -266.73877            0   -6.1898927            0            0            0            0            0            0 
14995000    548.88221    88439.437    495.51478   -240.73852    754.76511    514.02659     1221.974   -240.73852            0   -5.9214482            0            0            0            0            0            0 
14996000    479.21524    89234.048    512.02539   -252.62214    779.91397    527.29182    1150.9363   -252.62214            0   -5.8687189            0            0            0            0            0            0 
14997000    482.44906    88835.135    519.05004   -251.20293    790.61387    539.41094    1164.4571   -251.20293            0   -5.8950723            0            0            0            0            0            0 
14998000    534.66903    83692.642    556.21836   -266.42299    847.22843    580.80545    1233.4071   -266.42299            0   -6.2572949            0            0            0            0            0            0 
14999000    400.81495    93488.749    513.84762   -250.95691    782.68958    531.73267    1078.2188   -250.95691            0   -5.6016317            0            0            0            0            0            0 
15000000    522.55121    89509.445    526.90536   -243.57157    802.57904    559.00748    1241.1476   -243.57157            0   -5.8506624            0            0            0            0            0            0 
Loop time of 1118.33 on 8 procs for 5000000 steps with 512 atoms

Pair  time (%) = 542.518 (48.5115)
Bond  time (%) = 0.470978 (0.0421144)
Neigh time (%) = 26.1618 (2.33937)
Comm  time (%) = 389.817 (34.8572)
Outpt time (%) = 0.258614 (0.023125)
Other time (%) = 159.102 (14.2267)

Nlocal:    64 ave 69 max 57 min
Histogram: 1 1 0 0 0 2 0 2 1 1
Nghost:    953.5 ave 990 max 925 min
Histogram: 1 2 1 0 1 1 0 0 0 2
Neighs:    3686.5 ave 4026 max 3381 min
Histogram: 1 1 1 0 2 0 1 1 0 1

Total # of neighbors = 29492
Ave neighs/atom = 57.6016
Ave special neighs/atom = 0
Neighbor list builds = 106050
Dangerous builds = 0

Averages
Group Pressure(MPa) Volume(m3) Temperature(K) PE(J) KE(J) ET(J) ET^2(J) H(J) H^2(J^2) V^2(m6) V*H(m3*J) Hconf(J) Uext*Hconf(J^2) V*Hconf(m3*J) Uext(J)
Block1 49.941165133590736502 8.7988811534532658194e-26 521.10056956018161145 -1.7701202391320771418e-18 5.5146440433285966032e-18 3.7445238041965167651e-18 1.4068313034187848001e-35 8.1314654599882577845e-18 6.6383677878610274536e-35 7.7511727758869604341e-51 7.1548171001270437205e-43 2.6168214166596661888e-18 -4.6116436718975695328e-36 2.302430272966419749e-43 -1.7701202391320771418e-18
Block2 50.116652966514585898 8.789396689667541984e-26 520.03288091468721177 -1.769374863769918033e-18 5.5033450289483735503e-18 3.7339701651784535913e-18 1.398827605006600196e-35 8.131580702745423416e-18 6.6400843229016567776e-35 7.7344351861520313545e-51 7.1469754798293789422e-43 2.6282356737970533324e-18 -4.6287994144051946536e-36 2.3099171000912484799e-43 -1.769374863769918033e-18
Block3 49.977060409690757581 8.7938770140886866229e-26 520.65112995394338213 -1.7692771848542253897e-18 5.5098877648054805793e-18 3.7406105799512594267e-18 1.4038799186542893952e-35 8.1285079504840347804e-18 6.633332564316772142e-35 7.7423854565015166261e-51 7.1484431854686682928e-43 2.6186201856785488084e-18 -4.6132681214905385532e-36 2.3030171067569717485e-43 -1.7692771848542253897e-18
Block4 49.946358588231397846 8.8027699382472978543e-26 521.2102802116392013 -1.7655062040832682498e-18 5.5158050767756813513e-18 3.7502988726924042423e-18 1.4113822712857629592e-35 8.1402752020786936135e-18 6.6551880878305097499e-35 7.757753344678536846e-51 7.16599702481377288e-43 2.6244701253030253585e-18 -4.610603172952217251e-36 2.3105729994263476546e-43 -1.7655062040832682498e-18
Block5 49.878204719123843347 8.7988813730007291357e-26 520.03134864791502423 -1.7698822247906597036e-18 5.5033288134492451436e-18 3.7334465886585835141e-18 1.3984663781250021259e-35 8.114538496835418153e-18 6.6105331956222566566e-35 7.7513103976419414552e-51 7.1392784080975673994e-43 2.6112096833861726242e-18 -4.6012325022333062696e-36 2.2971763458039948585e-43 -1.7698822247906597036e-18
Ave_blocks 49.971888363430267077 8.7967612336915026762e-26 520.60524185767326344 -1.7688321433260300888e-18 5.5094021454614749833e-18 3.7405700021354441242e-18 1.4038774952980879487e-35 8.129273562426364625e-18 6.6355011917064447697e-35 7.7474114321721968684e-51 7.1511022396672867249e-43 2.6198714169648934936e-18 -4.6131093765957653857e-36 2.3046227650089964981e-43 -1.7688321433260300888e-18
Stdev_blocks 0.079190721492724089337 4.640017506945387159e-29 0.50407878854079990472 1.6921194506588603216e-21 5.3345078684938305861e-21 6.3966551733314733722e-21 4.8954720288989487785e-38 8.3531036870026953714e-21 1.4456141375076475491e-37 8.1234005783510916748e-54 8.9393346707179609536e-46 5.9498339626596495822e-21 8.8959763712570916689e-39 5.0253276975789181359e-46 1.6921194506588603216e-21






Properties
Group rho(kg/m3) Cp(J/K) Cp_conf(J/K) Cp_id(J/K) Cp2(J/K) kT(1/Pa) aP(1/K) aP2(1/K) Cv(J/K) uJT(K/Pa) sos(m/s) Cv2(J/K) uJT2(K/Pa) sos2(m/s) CvNVT(J/K)
Block1 155.01100563027054591 7.0136240950186673741e-20 -1.7219253926514265353e-21 4.0622901210714593802e-20 3.8900975818063168771e-20 1.4441106684227347548e-08 1.1301604468166935835e-05 -2.4188171813469429956e-05 7.0135835414823773346e-20 -1.2471529734014809963e-06 668.37431269670275924 3.8899118207752915012e-20 -2.2903760639865771897e-06 668.38833911172991975 1.2497556878602176321e-20
Block2 155.17827493454683463 7.4519923577654484426e-20 -1.493935985970146477e-21 4.0568122389993073237e-20 3.907418640402292375e-20 1.4397550690926071868e-08 -5.8923419033300569378e-05 -4.3724699048848426235e-05 7.4508901153184235194e-20 -1.2156108007112856019e-06 669.07122620506345356 3.9068116876127104846e-20 -2.3005603674882183122e-06 669.07370917249568265 1.2251194781682405624e-20
Block3 155.09921435481544449 6.9652669005157823589e-20 -1.4659377049246207207e-21 4.0599843048826634707e-20 3.9133905343902011729e-20 1.4487649411923495364e-08 0.0001012581230933599257 7.1317212139200976103e-05 6.9620265721612302003e-20 -1.1959717500037894966e-06 667.26336330423532672 3.9117831564987182723e-20 -2.1636859619011214342e-06 667.24518118490971119 1.2459602055862138667e-20
Block4 154.94252668036827458 7.6733038783605922987e-20 -5.4340547842465762584e-22 4.0628529656503810078e-20 4.00851241780791517e-20 1.40143983185085254e-08 9.0876610101770741602e-05 9.4597837670439593647e-05 7.6706001559249929753e-20 -1.0928564311692236078e-06 678.7408389587004649 4.0055827371318396957e-20 -2.0877436008506791215e-06 678.86937597502537756 1.3085940160726599695e-20
Block5 155.01100176247513218 6.9527609728706145343e-20 -2.1608113057979198728e-21 4.0568043770989811655e-20 3.8407232465191888773e-20 1.4688031324708974082e-08 -0.00018499447613020829654 -0.00012056233710327220567 6.9420996543515168668e-20 -1.387270402692088211e-06 663.2391762477471957 3.836195139177345978e-20 -2.4345773316800327646e-06 663.12149414977443485 1.2330944859974713105e-20
Ave_blocks 155.04840467249522362 7.211389640906220761e-20 -1.4772031735537542463e-21 4.0597488015405588307e-20 3.9120284841851832556e-20 1.4405747286058883845e-08 -8.0963115000422522174e-06 -4.5120316311898982532e-06 7.2078400078477089015e-20 -1.2277724715955735404e-06 669.33778348248984003 3.9100569082391815475e-20 -2.2553886651813259338e-06 669.33961991878697972 1.2525047747369608488e-20
Stdev_blocks 0.081799418136028867465 2.959158098278860609e-21 5.2907354426651409578e-22 2.5862187244635206918e-23 5.4585083467069452267e-22 2.1948290243710874026e-10 0.0001058363512497192461 7.8695994284867727729e-05 2.9732072405234475546e-21 9.5054430692206782715e-08 5.1168937902894482406 5.4772403367880689422e-22 1.1990615693063380072e-07 5.1931427070609954555 2.9404440599155113596e-22






