LAMMPS (28 Oct 2012)
Scanning data file ...
Reading data file ...
  orthogonal box = (0 0 0) to (100 100 100)
  2 by 2 by 2 MPI processor grid
  512 atoms
Finding 1-2 1-3 1-4 neighbors ...
  0 = max # of 1-2 neighbors
  0 = max # of 1-3 neighbors
  0 = max # of 1-4 neighbors
  1 = max # of special neighbors
WARNING: Resetting reneighboring criteria during minimization (min.cpp:173)
Setting up minimization ...
Memory usage per processor = 4.05499 Mbytes
Step Temp E_pair E_mol TotEng Press 
       0       540.15    1409.7233            0    2232.4766    450.12639 
     701       540.15   -217.27527            0    605.47794    37.381488 
Loop time of 0.0550219 on 8 procs for 701 steps with 512 atoms

Minimization stats:
  Stopping criterion = energy tolerance
  Energy initial, next-to-last, final = 
         1409.72334813     -217.256630745     -217.275265106
  Force two-norm initial, final = 5034.49 0.337455
  Force max component initial, final = 2457.89 0.147661
  Final line search alpha, max atom move = 0.254892 0.0376377
  Iterations, force evaluations = 701 710

Pair  time (%) = 0.00894994 (16.2661)
Bond  time (%) = 5.90682e-05 (0.107354)
Neigh time (%) = 0.00315028 (5.72551)
Comm  time (%) = 0.0223614 (40.6409)
Outpt time (%) = 0 (0)
Other time (%) = 0.0205012 (37.2601)

Nlocal:    64 ave 74 max 52 min
Histogram: 1 0 0 1 1 2 0 2 0 1
Nghost:    235.125 ave 266 max 224 min
Histogram: 4 0 2 0 0 1 0 0 0 1
Neighs:    316.25 ave 371 max 226 min
Histogram: 1 0 0 1 1 1 0 1 0 3

Total # of neighbors = 2530
Ave neighs/atom = 4.94141
Ave special neighs/atom = 0
Neighbor list builds = 60
Dangerous builds = 0
Setting up run ...
Memory usage per processor = 3.36354 Mbytes
Step Temp E_pair E_mol TotEng Press Volume 
     701       540.15   -217.27527            0    605.47794    37.381488      1000000 
 5000701    525.76546   -236.38707            0    564.45568    471.22659    92759.202 
Loop time of 1114.7 on 8 procs for 5000000 steps with 512 atoms

Pair  time (%) = 522.859 (46.9058)
Bond  time (%) = 0.437763 (0.0392718)
Neigh time (%) = 26.236 (2.35364)
Comm  time (%) = 407.555 (36.5618)
Outpt time (%) = 5.09322e-05 (4.56914e-06)
Other time (%) = 157.612 (14.1394)

Nlocal:    64 ave 79 max 52 min
Histogram: 1 1 0 1 1 3 0 0 0 1
Nghost:    945.75 ave 983 max 905 min
Histogram: 1 0 1 1 1 1 0 1 0 2
Neighs:    3565.5 ave 4489 max 2768 min
Histogram: 1 1 1 1 0 1 1 1 0 1

Total # of neighbors = 28524
Ave neighs/atom = 55.7109
Ave special neighs/atom = 0
Neighbor list builds = 107965
Dangerous builds = 3
Setting up run ...
Memory usage per processor = 3.94009 Mbytes
Step Press Volume Temp PotEng KinEng TotEng Enthalpy E_vdwl E_coul E_tail E_long E_bond E_angle E_dihed E_impro E_mol 
10000000    471.22659    92759.202    525.76546   -236.38707    800.84275    564.45568      1201.93   -236.38707            0   -5.6456883            0            0            0            0            0            0 
10001000    565.38944    85065.575    569.88124    -259.1706    868.03965    608.86905    1310.2879    -259.1706            0    -6.156304            0            0            0            0            0            0 
10002000    481.35454    96920.248    521.43412   -223.71843    794.24528    570.52686     1250.913   -223.71843            0   -5.4033038            0            0            0            0            0            0 
10003000    458.07581    94198.197    561.85249   -243.52089     855.8103    612.28941    1241.5867   -243.52089            0   -5.5594434            0            0            0            0            0            0 
10004000    510.08247    90538.653    565.68624   -235.60127    861.64985    626.04858    1299.5683   -235.60127            0   -5.7841543            0            0            0            0            0            0 
10005000    488.26357    91886.039    518.61428   -237.89373    789.95013     552.0564    1206.3607   -237.89373            0   -5.6993375            0            0            0            0            0            0 
10006000    526.48218      88575.8    545.62141   -249.84931    831.08722    581.23791    1261.3408   -249.84931            0   -5.9123321            0            0            0            0            0            0 
10007000    534.28822    87879.857    560.30679   -256.77705    853.45591    596.67886    1281.4427   -256.77705            0   -5.9591533            0            0            0            0            0            0 
10008000    425.71749    94443.969    520.68547   -240.67912    793.10496    552.42584    1138.7957   -240.67912            0    -5.544976            0            0            0            0            0            0 
10009000    480.83472    87706.349    523.25612   -259.83433    797.02055    537.18622    1152.2253   -259.83433            0   -5.9709423            0            0            0            0            0            0 
10010000    476.18603    88022.267    537.88344   -257.91476     819.3008    561.38604    1172.6729   -257.91476            0   -5.9495121            0            0            0            0            0            0 
10011000    436.50574    100513.24    551.03846   -215.12362    839.33845    624.21483     1264.081   -215.12362            0   -5.2101548            0            0            0            0            0            0 
10012000    483.57145    93000.025    556.13345   -233.59389     847.0991    613.50521     1269.378   -233.59389            0   -5.6310688            0            0            0            0            0            0 
10013000    474.07368    86650.282    506.30058   -271.52409    771.19397    499.66988    1098.7594   -271.52409            0   -6.0437142            0            0            0            0            0            0 
10014000    514.98347    88415.161     537.1578    -251.2788     818.1955     566.9167    1230.9593    -251.2788            0    -5.923074            0            0            0            0            0            0 
10015000    472.64182    95508.537    547.11906   -235.88519    833.36843    597.48324    1255.8232   -235.88519            0     -5.48317            0            0            0            0            0            0 
10016000    444.66021    94098.533    506.96133    -232.9783    772.20042    539.22212    1149.4429    -232.9783            0   -5.5653316            0            0            0            0            0            0 
10017000    460.57206    85911.908    515.74611   -272.67198    785.58135    512.90937    1089.9772   -272.67198            0   -6.0956572            0            0            0            0            0            0 
10018000    450.86467    91630.806    546.42375   -242.25632    832.30934    590.05302    1192.5621   -242.25632            0   -5.7152127            0            0            0            0            0            0 
10019000    537.98496     90360.07    569.04318   -236.28502    866.76311    630.47809    1339.4395   -236.28502            0   -5.7955859            0            0            0            0            0            0 
10020000    487.38242    91958.954    530.39304    -247.4509    807.89146    560.44056    1214.0823    -247.4509            0   -5.6948184            0            0            0            0            0            0 
10021000    584.03791    88075.811    533.82568   -245.57766    813.12004    567.54238    1317.7364   -245.57766            0   -5.9458952            0            0            0            0            0            0 
10022000    480.95133    90473.096    551.22688   -251.86398    839.62543    587.76146    1222.3562   -251.86398            0   -5.7883456            0            0            0            0            0            0 
10023000    536.17742    88571.917    533.95236   -250.23759      813.313     563.0754    1255.6722   -250.23759            0   -5.9125913            0            0            0            0            0            0 
10024000    473.03198    92099.452    527.23645   -246.38915    803.08336    556.69421    1192.0594   -246.38915            0   -5.6861309            0            0            0            0            0            0 
10025000    517.39437    95314.511    564.82611   -229.15635     860.3397    631.18335    1350.3948   -229.15635            0   -5.4943318            0            0            0            0            0            0 
10026000    551.99417    88238.831    552.58598   -248.34026    841.69561    593.35535    1303.7017   -248.34026            0   -5.9349103            0            0            0            0            0            0 
10027000    350.14443    91575.007    492.15332   -262.43516    749.64495    487.20979    954.83732   -262.43516            0   -5.7186951            0            0            0            0            0            0 
10028000    439.25524    91485.997    531.59289   -246.28731    809.71907    563.43176     1149.499   -246.28731            0   -5.7242591            0            0            0            0            0            0 
10029000    514.12638    89977.405    544.32868   -242.21017    829.11814    586.90797    1261.5591   -242.21017            0   -5.8202339            0            0            0            0            0            0 
10030000    483.22478    96350.974    548.86134   -226.48645    836.02227    609.53583    1288.5537   -226.48645            0   -5.4352284            0            0            0            0            0            0 
10031000    507.01017    90402.858    523.17671   -242.21924     796.8996    554.68035    1223.1393   -242.21924            0   -5.7928428            0            0            0            0            0            0 
10032000    525.45892    89492.755     557.2589   -237.28856    848.81337    611.52481    1297.3328   -237.28856            0   -5.8517536            0            0            0            0            0            0 
10033000      433.547    95239.711     552.2158   -237.49278    841.13175    603.63897    1205.8243   -237.49278            0   -5.4986469            0            0            0            0            0            0 
10034000    443.34135    92100.206     544.5404   -249.05058    829.44064    580.39006    1175.8804   -249.05058            0   -5.6860844            0            0            0            0            0            0 
10035000    511.03119    89280.107    545.07849   -252.33779    830.26026    577.92247    1243.3151   -252.33779            0   -5.8656913            0            0            0            0            0            0 
10036000    466.29754    92471.826    551.26251   -249.65043    839.67972    590.02929    1218.8813   -249.65043            0   -5.6632335            0            0            0            0            0            0 
10037000    397.20242    96496.127    543.44422   -247.22792    827.77094    580.54302    1139.5248   -247.22792            0   -5.4270525            0            0            0            0            0            0 
10038000    547.23733     85576.25    541.87595   -263.14164    825.38215    562.24052    1245.2156   -263.14164            0   -6.1195664            0            0            0            0            0            0 
10039000    521.49335    93037.643    560.96593   -234.14516     854.4599    620.31474    1327.9075   -234.14516            0    -5.628792            0            0            0            0            0            0 
10040000    558.91898     91965.39    564.68118   -234.14725    860.11896     625.9717    1375.6055   -234.14725            0   -5.6944199            0            0            0            0            0            0 
10041000    487.90267      87923.1    548.85726   -251.60792    836.01604    584.40813    1210.0302   -251.60792            0   -5.9562225            0            0            0            0            0            0 
10042000    501.45947     90834.34    526.90436    -241.0474    802.57753    561.53013    1225.8264    -241.0474            0   -5.7653256            0            0            0            0            0            0 
10043000    534.24099    93679.918    571.59806   -235.32934     870.6547    635.32536     1365.219   -235.32934            0   -5.5902007            0            0            0            0            0            0 
10044000    419.69367     92432.06    526.26364   -238.84429    801.60159     562.7573    1128.5156   -238.84429            0     -5.66567            0            0            0            0            0            0 
10045000    448.01276    91433.827    534.66692   -249.89433    814.40141    564.50708     1161.918   -249.89433            0   -5.7275252            0            0            0            0            0            0 
10046000    455.45743    94207.091    556.90743    -239.5604    848.27801    608.71761    1234.4768    -239.5604            0   -5.5589186            0            0            0            0            0            0 
10047000    540.16871    84171.112    539.51615   -266.11889    821.78772    555.66883    1218.7526   -266.11889            0   -6.2217254            0            0            0            0            0            0 
10048000     452.0549    92763.042    515.75436   -244.25996    785.59391    541.33395    1152.8982   -244.25996            0   -5.6454547            0            0            0            0            0            0 
10049000    524.48923    93003.903    536.92188   -225.47959    817.83616    592.35657    1303.7562   -225.47959            0   -5.6308341            0            0            0            0            0            0 
10050000    510.01346    87486.825    554.71096   -259.01535    844.93237    585.91702    1236.6461   -259.01535            0   -5.9859247            0            0            0            0            0            0 
10051000    449.77788    90694.714     522.6866   -250.09285    796.15305    546.06021    1140.9766   -250.09285            0   -5.7742014            0            0            0            0            0            0 
10052000    416.30851    94525.786    540.63611   -247.43171    823.49365    576.06193    1149.9689   -247.43171            0   -5.5401766            0            0            0            0            0            0 
10053000    459.98188    94946.688    527.46036   -233.37082    803.42441     570.0536    1206.9905   -233.37082            0   -5.5156168            0            0            0            0            0            0 
10054000    581.15423    88093.187    553.42955   -237.72612    842.98053    605.25442    1351.8916   -237.72612            0   -5.9447224            0            0            0            0            0            0 
10055000    547.70635    89083.478    543.89527    -241.7502    828.45798    586.70778     1298.283    -241.7502            0   -5.8786383            0            0            0            0            0            0 
10056000    476.55436    93543.547    534.78999   -240.35068    814.58886    574.23818    1224.3711   -240.35068            0   -5.5983503            0            0            0            0            0            0 
10057000    520.58771    88337.607    545.80378   -256.90608    831.36501    574.45893     1245.139   -256.90608            0   -5.9282741            0            0            0            0            0            0 
10058000     480.3484    94828.674    520.87244   -223.75406    793.38974    569.63568    1233.9474   -223.75406            0   -5.5224809            0            0            0            0            0            0 
10059000    507.64556    87952.746    530.14107    -261.0558    807.50767    546.45187    1197.6091    -261.0558            0   -5.9542148            0            0            0            0            0            0 
10060000    542.01168    91007.238    549.71707   -231.69168     837.3257    605.63402    1325.0175   -231.69168            0   -5.7543725            0            0            0            0            0            0 
10061000    545.03582    89502.699    566.42548   -240.64365    862.77586    622.13221    1333.5702   -240.64365            0   -5.8511034            0            0            0            0            0            0 
10062000    508.73236    91774.445    559.87376   -239.39558    852.79632    613.40075    1294.3065   -239.39558            0   -5.7062676            0            0            0            0            0            0 
10063000    466.09241    91762.702    512.51472    -242.3457    780.65932    538.31361    1162.0687    -242.3457            0   -5.7069979            0            0            0            0            0            0 
10064000    488.08515    89564.276    524.32652   -248.40692    798.65098    550.24405    1187.7824   -248.40692            0   -5.8470806            0            0            0            0            0            0 
10065000    563.19951    89811.912    539.44824   -227.07715    821.68429    594.60714    1332.2941   -227.07715            0   -5.8309587            0            0            0            0            0            0 
10066000    477.73729    97523.061    546.02092   -225.07269    831.69575    606.62306    1286.0963   -225.07269            0   -5.3699047            0            0            0            0            0            0 
10067000    420.52796    90354.888    533.56168   -265.71919    812.71792    546.99872    1101.1424   -265.71919            0   -5.7959183            0            0            0            0            0            0 
10068000    535.31507    90778.347    542.51281   -232.01367    826.35223    594.33856     1303.047   -232.01367            0   -5.7688817            0            0            0            0            0            0 
10069000     429.2464    95626.813    549.80664   -234.42712    837.46214    603.03503    1201.6702   -234.42712            0   -5.4763881            0            0            0            0            0            0 
10070000    601.28162    86649.354    551.56615   -236.10512    840.14222     604.0371    1363.8718   -236.10512            0    -6.043779            0            0            0            0            0            0 
10071000    503.87637    89412.734    541.73742   -246.24292    825.17115    578.92823    1235.9795   -246.24292            0   -5.8569906            0            0            0            0            0            0 
10072000    481.74469    94187.621    569.26892   -232.74473    867.10697    634.36224    1296.1011   -232.74473            0   -5.5600676            0            0            0            0            0            0 
10073000    455.89065    93261.002    568.59892   -244.36307    866.08642    621.72336    1241.7875   -244.36307            0   -5.6153111            0            0            0            0            0            0 
10074000    498.14551    83183.474    531.98437    -276.2958    810.31537    534.01957    1138.3426    -276.2958            0    -6.295596            0            0            0            0            0            0 
10075000    504.88033    90899.115     571.0303   -251.48803    869.78989    618.30186    1287.6068   -251.48803            0   -5.7612172            0            0            0            0            0            0 
10076000     453.5881    89890.908    566.87519   -250.08739    863.46086    613.37347    1208.0124   -250.08739            0   -5.8258344            0            0            0            0            0            0 
10077000    526.17706    89517.447    553.01784   -241.93545    842.35342    600.41797    1287.3527   -241.93545            0   -5.8501394            0            0            0            0            0            0 
10078000    424.22611    95157.741    572.49704   -253.03234    872.02402    618.99169    1207.7234   -253.03234            0   -5.5033836            0            0            0            0            0            0 
10079000    535.97101    90629.942    538.10916   -245.27972     819.6446    574.36489    1282.7817   -245.27972            0   -5.7783281            0            0            0            0            0            0 
10080000    500.97717     93642.35    524.31819   -234.08829    798.63829       564.55    1248.7233   -234.08829            0   -5.5924434            0            0            0            0            0            0 
10081000    561.47976    87258.702    568.00668   -250.92914    865.18433    614.25519    1328.7824   -250.92914            0   -6.0015739            0            0            0            0            0            0 
10082000     512.8376     92680.47     540.6203   -236.55002    823.46956    586.91954    1280.0963   -236.55002            0   -5.6504843            0            0            0            0            0            0 
10083000     437.1615     94001.78     526.7617   -239.58201    802.36023    562.77821    1162.0915   -239.58201            0   -5.5710599            0            0            0            0            0            0 
10084000    444.05813    89398.151    521.94842   -256.32284    795.02866    538.70582    1117.6601   -256.32284            0    -5.857946            0            0            0            0            0            0 
10085000    500.61466    90193.132    539.23538   -245.42425    821.36006     575.9358    1234.4315   -245.42425            0   -5.8063129            0            0            0            0            0            0 
10086000     469.5608    91358.401    539.50755   -245.70608    821.77462    576.06855    1201.6966   -245.70608            0   -5.7322539            0            0            0            0            0            0 
10087000     454.0612    98081.056    520.48547   -219.24702    792.80031    573.55329    1223.0477   -219.24702            0   -5.3393547            0            0            0            0            0            0 
10088000    578.82003    89643.535    568.88827   -237.45918    866.52716    629.06798    1385.7936   -237.45918            0   -5.8419109            0            0            0            0            0            0 
10089000    507.31907    89323.851     540.0675    -246.1076    822.62755    576.51994    1237.4028    -246.1076            0   -5.8628187            0            0            0            0            0            0 
10090000    401.17543    93191.287    514.63287   -247.16602    783.88567    536.71965    1081.9569   -247.16602            0   -5.6195119            0            0            0            0            0            0 
10091000    461.35878     89282.48    547.63013   -257.99964    834.14689    576.14724    1176.8795   -257.99964            0   -5.8655354            0            0            0            0            0            0 
10092000    486.42438    95628.742    528.03903   -219.30229    804.30585    585.00356    1263.3939   -219.30229            0   -5.4762777            0            0            0            0            0            0 
10093000    512.28898    91896.442    535.04693   -237.68348    814.98023    577.29676    1263.8743   -237.68348            0   -5.6986923            0            0            0            0            0            0 
10094000     577.4029    86543.743    546.43502   -245.95577    832.32651    586.37073    1315.1408   -245.95577            0   -6.0511543            0            0            0            0            0            0 
10095000    492.99197    94210.717    539.52815   -235.86449    821.80601    585.94152    1263.2961   -235.86449            0   -5.5587046            0            0            0            0            0            0 
10096000    565.14576    88880.762     544.9827   -240.39838    830.11434    589.71597    1322.2775   -240.39838            0    -5.892046            0            0            0            0            0            0 
10097000    438.21131    96444.447    545.14017   -238.26093     830.3542    592.09327    1208.4565   -238.26093            0   -5.4299606            0            0            0            0            0            0 
10098000    523.91436    90796.047    548.08532   -245.12832    834.84024    589.71192    1283.4621   -245.12832            0   -5.7677571            0            0            0            0            0            0 
10099000    539.01917    89551.215    565.38832   -232.70754    861.19606    628.48852    1332.4544   -232.70754            0   -5.8479334            0            0            0            0            0            0 
10100000    584.44408    90011.045    568.75601   -242.47173    866.32571    623.85398    1391.0647   -242.47173            0   -5.8180587            0            0            0            0            0            0 
10101000    426.50787    99397.198    568.61677   -229.88933    866.11361    636.22428    1254.4927   -229.88933            0    -5.268655            0            0            0            0            0            0 
10102000    477.40593    88848.921     515.6942   -256.16143    785.50228    529.34085    1147.9493   -256.16143            0   -5.8941577            0            0            0            0            0            0 
10103000    531.46118    90460.218    558.45745   -241.65982      850.639    608.97918    1310.1197   -241.65982            0   -5.7891696            0            0            0            0            0            0 
10104000    578.37165     88001.65     555.8035   -246.40069    846.59651    600.19583     1342.486   -246.40069            0    -5.950906            0            0            0            0            0            0 
10105000    503.07013    92734.045    515.44026   -226.13833    785.11547    558.97714    1239.3447   -226.13833            0   -5.6472199            0            0            0            0            0            0 
10106000    511.27085    90675.212    557.86389   -242.12985     849.7349    607.60505    1283.7122   -242.12985            0   -5.7754433            0            0            0            0            0            0 
10107000    490.84199    92616.857    544.49807   -236.11775    829.37616    593.25841    1256.2494   -236.11775            0   -5.6543653            0            0            0            0            0            0 
10108000    457.89309    91490.009    535.76897    -250.4482    816.08005    565.63185    1176.5931    -250.4482            0    -5.724008            0            0            0            0            0            0 
10109000    507.83071    88078.341    540.65142   -248.74876    823.51697     574.7682    1227.0931   -248.74876            0   -5.9457245            0            0            0            0            0            0 
10110000    487.08715    96967.914    563.12703   -225.81814    857.75168    631.93353    1320.7613   -225.81814            0   -5.4006477            0            0            0            0            0            0 
10111000    468.12158     93124.78    511.02988   -240.84329    778.39762    537.55432     1173.324   -240.84329            0   -5.6235252            0            0            0            0            0            0 
10112000    574.33223    82125.004    545.07258   -264.87044    830.25125    565.38082    1253.2637   -264.87044            0   -6.3767369            0            0            0            0            0            0 
10113000    529.78682      88418.2     545.8879   -252.19205    831.49313    579.30109    1262.4552   -252.19205            0   -5.9228705            0            0            0            0            0            0 
10114000    469.61601    94692.184    543.38121   -230.34375    827.67497    597.33121    1245.8655   -230.34375            0   -5.5304411            0            0            0            0            0            0 
10115000    518.07014    89209.851    557.64956   -244.81022    849.40843     604.5982    1278.6252   -244.81022            0   -5.8703107            0            0            0            0            0            0 
10116000    490.75532    88479.435    528.51305   -247.16941    805.02787    557.85847    1191.1202   -247.16941            0   -5.9187714            0            0            0            0            0            0 
10117000    357.17099    96502.332     485.2094   -242.69962    739.06801    496.36839    999.04638   -242.69962            0   -5.4267035            0            0            0            0            0            0 
10118000    540.71661    83923.957    538.73293   -267.77485    820.59473    552.81988    1214.6272   -267.77485            0   -6.2400483            0            0            0            0            0            0 
10119000    458.47771    89540.773    502.30912   -253.60458     765.1142    511.50962    1110.2175   -253.60458            0   -5.8486154            0            0            0            0            0            0 
10120000     454.2392    92505.406    566.95517   -246.60008    863.58268     616.9826    1229.7951   -246.60008            0   -5.6611778            0            0            0            0            0            0 
10121000    499.69088     88988.77    523.94932   -253.95233    798.07642    544.12409    1192.6279   -253.95233            0   -5.8848947            0            0            0            0            0            0 
10122000    466.13021    91701.811    534.21258   -243.73312    813.70936    569.97624     1193.368   -243.73312            0   -5.7107874            0            0            0            0            0            0 
10123000      500.975    92151.869    554.64764   -237.44793    844.83593    607.38799    1280.6686   -237.44793            0   -5.6828966            0            0            0            0            0            0 
10124000    576.28677    91081.114    549.53837   -232.16462    837.05351     604.8889    1370.3848   -232.16462            0   -5.7497051            0            0            0            0            0            0 
10125000    499.69088    91053.233    557.15561   -251.15205    848.65605    597.50401    1261.0525   -251.15205            0   -5.7514657            0            0            0            0            0            0 
10126000    523.96988    85180.075    512.18217   -256.98825    780.15277    523.16452    1174.0735   -256.98825            0   -6.1480287            0            0            0            0            0            0 
10127000    467.66571    89173.131    526.96211    -255.6937    802.66549    546.97179    1155.1704    -255.6937            0    -5.872728            0            0            0            0            0            0 
10128000      424.269     91108.44    528.88636   -255.53771    805.59649    550.05878    1113.7948   -255.53771            0   -5.7479806            0            0            0            0            0            0 
10129000    539.85225    89409.708    547.62521   -237.75062     834.1394    596.38878    1300.3285   -237.75062            0   -5.8571889            0            0            0            0            0            0 
10130000    476.04215    95098.935    537.93153   -230.39356    819.37404    588.98048    1249.2131   -230.39356            0   -5.5067866            0            0            0            0            0            0 
10131000    516.07786    90532.942    530.07702   -238.48892     807.4101    568.92118    1250.3143   -238.48892            0   -5.7845193            0            0            0            0            0            0 
10132000    509.00397    89264.283     537.2109   -254.30567    818.27639    563.97072    1226.6063   -254.30567            0   -5.8667311            0            0            0            0            0            0 
10133000    576.30921    94243.368    565.59782   -212.34376    861.51517    649.17141    1441.2755   -212.34376            0   -5.5567788            0            0            0            0            0            0 
10134000    446.35878    96565.011    542.24791   -244.22142    825.94873    581.72731    1210.3351   -244.22142            0   -5.4231812            0            0            0            0            0            0 
10135000    548.04075    84798.877    561.32675     -267.261     855.0095     587.7485     1265.513     -267.261            0   -6.1756661            0            0            0            0            0            0 
10136000    414.05597    91314.141    532.07002    -253.8242    810.44582    556.62162    1108.0295    -253.8242            0   -5.7350323            0            0            0            0            0            0 
10137000    499.45361     88968.55    545.17902   -248.69731    830.41337    581.71606    1229.7646   -248.69731            0   -5.8862322            0            0            0            0            0            0 
10138000    483.79284     91669.91    559.60952    -247.7209    852.39383    604.67293    1251.4612    -247.7209            0   -5.7127747            0            0            0            0            0            0 
10139000    430.09833    92198.998    507.73132   -254.50802    773.37327    518.86525    1097.1874   -254.50802            0   -5.6799917            0            0            0            0            0            0 
10140000     606.0059    90447.173    541.94924   -225.84085    825.49379    599.65295    1399.0228   -225.84085            0   -5.7900046            0            0            0            0            0            0 
10141000    512.02466    90719.972    549.10316   -238.80479     836.3906     597.5858     1275.024   -238.80479            0   -5.7725938            0            0            0            0            0            0 
10142000    503.94252    87887.696     551.2412   -256.87412    839.64725    582.77313    1228.7024   -256.87412            0   -5.9586218            0            0            0            0            0            0 
10143000    444.09964    92475.719    533.84478   -243.97507    813.14913    569.17406     1168.115   -243.97507            0   -5.6629951            0            0            0            0            0            0 
10144000    513.97759    87203.208    520.15948   -257.23429    792.30376    535.06947    1188.7304   -257.23429            0   -6.0053931            0            0            0            0            0            0 
10145000    500.28808    90220.226    540.49434   -248.04381     823.2777    575.23389    1233.4977   -248.04381            0   -5.8045692            0            0            0            0            0            0 
10146000     471.6139    90243.741     559.5232   -256.04655    852.26234    596.21579    1216.9127   -256.04655            0   -5.8030567            0            0            0            0            0            0 
10147000     536.8352    91220.969    515.88913   -236.13893    785.79919    549.66026    1263.8466   -236.13893            0   -5.7408899            0            0            0            0            0            0 
10148000    473.55884    95974.393    514.22024   -226.82281    783.25716    556.43434     1219.269   -226.82281            0   -5.4565549            0            0            0            0            0            0 
10149000    623.04134    86662.977    559.75848    -232.2542    852.62073    620.36653    1407.8226    -232.2542            0   -6.0428289            0            0            0            0            0            0 
10150000    498.42624    86153.361    533.93368   -264.72971    813.28454    548.55483    1174.8067   -264.72971            0   -6.0785736            0            0            0            0            0            0 
10151000    443.56737    93956.679    543.26054   -248.44174    827.49116    579.04942    1186.8528   -248.44174            0   -5.5737341            0            0            0            0            0            0 
10152000    508.60225    90305.187    525.56623   -240.24512    800.53929    560.29417    1230.1277   -240.24512            0   -5.7991081            0            0            0            0            0            0 
10153000    497.09317    83746.896    532.47492   -276.00038    811.06257     535.0622    1142.1932   -276.00038            0   -6.2532412            0            0            0            0            0            0 
10154000    465.67123    95709.116    550.38478   -236.35259    838.34277    601.99018    1251.9831   -236.35259            0   -5.4716789            0            0            0            0            0            0 
10155000    442.80333    94058.635    536.13576   -240.48451    816.63874    576.15422    1183.5691   -240.48451            0   -5.5676924            0            0            0            0            0            0 
10156000    506.99038    89780.244    513.91426   -249.48248    782.79108    533.30861    1197.1379   -249.48248            0   -5.8330154            0            0            0            0            0            0 
10157000    488.82989    91916.856    562.92846   -245.11494    857.44922    612.33429    1267.6171   -245.11494            0   -5.6974267            0            0            0            0            0            0 
10158000    480.09227    91550.501    546.00926    -237.1696    831.67799     594.5084    1235.5133    -237.1696            0   -5.7202259            0            0            0            0            0            0 
10159000    443.07187    91625.306    547.84133   -252.27892     834.4686    582.18967    1174.2494   -252.27892            0   -5.7155557            0            0            0            0            0            0 
10160000    566.08915    93431.851    546.04297   -221.07585    831.72933    610.65348    1382.0109   -221.07585            0    -5.605043            0            0            0            0            0            0 
10161000    500.52608    89467.096    559.29096   -249.18662     851.9086    602.72198    1255.8013   -249.18662            0   -5.8534318            0            0            0            0            0            0 
10162000    404.17618    95900.614    519.79044   -243.39757    791.74165    548.34409    1113.6298   -243.39757            0   -5.4607528            0            0            0            0            0            0 
10163000    463.01141    92912.929    545.42192   -242.65901    830.78335    588.12435    1215.5232   -242.65901            0   -5.6363474            0            0            0            0            0            0 
10164000    526.60751    88846.297    534.85365   -246.75463    814.68583    567.93121    1250.2735   -246.75463            0   -5.8943317            0            0            0            0            0            0 
10165000    566.66575    91670.207    545.21807   -218.80278    830.47286    611.67008    1369.2546   -218.80278            0   -5.7127562            0            0            0            0            0            0 
10166000    494.97567    91187.109    561.81903   -249.90742    855.75934    605.85192    1264.1054   -249.90742            0   -5.7430217            0            0            0            0            0            0 
10167000    495.43779     88016.26    530.33179   -250.93613    807.79817    556.86204    1192.8193   -250.93613            0   -5.9499181            0            0            0            0            0            0 
10168000    403.91016    89801.106    509.24304   -252.91544    775.67591    522.76047    1051.7442   -252.91544            0   -5.8316603            0            0            0            0            0            0 
10169000     482.2523    90196.878    524.29887   -236.86325    798.60887    561.74561    1196.1143   -236.86325            0   -5.8060717            0            0            0            0            0            0 
10170000    508.33422    92197.894    558.15542    -238.8997    850.17894    611.27925    1294.7914    -238.8997            0   -5.6800597            0            0            0            0            0            0 
10171000    486.98932    91266.928    499.29876   -246.00819    760.52884    514.52064    1162.7202   -246.00819            0    -5.737999            0            0            0            0            0            0 
10172000    546.52998    87532.337    537.34855   -241.37385    818.48605     577.1122    1274.7956   -241.37385            0   -5.9828124            0            0            0            0            0            0 
10173000    458.73505    97328.879    541.93868   -221.86737    825.47772    603.61034    1254.7581   -221.86737            0   -5.3806183            0            0            0            0            0            0 
10174000    514.05583    89105.447    518.98053   -249.15488    790.50799    541.35311    1209.3746   -249.15488            0   -5.8771889            0            0            0            0            0            0 
10175000    500.13245    93230.382    572.78016   -231.16591    872.45527    641.28936    1321.3042   -231.16591            0   -5.6171554            0            0            0            0            0            0 
10176000    510.02999    94313.859    541.48182   -226.07355    824.78183    598.70828    1300.2397   -226.07355            0   -5.5526256            0            0            0            0            0            0 
10177000     568.5612     88507.22    537.21511   -233.18553    818.28279    585.09726    1318.9887   -233.18553            0   -5.9169133            0            0            0            0            0            0 
10178000    454.55993    91538.039    568.43423   -249.92987    865.83557     615.9057    1222.7379   -249.92987            0   -5.7210046            0            0            0            0            0            0 
10179000    499.00344    92265.402    541.10102   -235.48641    824.20179    588.71538    1260.1725   -235.48641            0   -5.6759038            0            0            0            0            0            0 
10180000    423.56863    90830.347    526.85775   -249.12793    802.50654     553.3786    1114.4662   -249.12793            0   -5.7655791            0            0            0            0            0            0 
10181000    489.45164    87950.619    515.09139   -252.58579    784.58408     531.9983     1159.803   -252.58579            0   -5.9543588            0            0            0            0            0            0 
10182000    443.22747    94960.016    558.18673   -241.61355    850.22664    608.61309    1222.4363   -241.61355            0   -5.5148427            0            0            0            0            0            0 
10183000    546.20814     90763.15    540.95837   -233.83877     823.9845    590.14573    1313.1546   -233.83877            0   -5.7698476            0            0            0            0            0            0 
10184000     483.9071    86693.606    517.56495    -268.6762    788.35179    519.67559    1131.4974    -268.6762            0    -6.040694            0            0            0            0            0            0 
10185000    464.12782    98153.116    547.44664   -225.13572     833.8674    608.73168    1273.1133   -225.13572            0   -5.3354347            0            0            0            0            0            0 
10186000    491.35511    94102.816    506.16982    -233.4034     770.9948     537.5914    1211.9237    -233.4034            0   -5.5650783            0            0            0            0            0            0 
10187000    504.37939    92175.126    551.38975   -239.50333    839.87352    600.37019    1278.3972   -239.50333            0   -5.6814627            0            0            0            0            0            0 
10188000    515.23695    90537.203    531.00088   -240.35314    808.81732    568.46419    1248.7791   -240.35314            0    -5.784247            0            0            0            0            0            0 
10189000    394.01678    93147.894    504.03895   -255.30957    767.74906    512.43949    1047.6981   -255.30957            0   -5.6221298            0            0            0            0            0            0 
10190000     551.0355    90535.967    547.37635   -240.37295    833.76034    593.38739    1320.9605   -240.37295            0    -5.784326            0            0            0            0            0            0 
10191000    496.04457    92066.766     547.4722   -234.90202    833.90633    599.00431     1265.043   -234.90202            0   -5.6881497            0            0            0            0            0            0 
10192000    409.92108    96319.935    531.12845   -238.55231    809.01163    570.45932    1146.2867   -238.55231            0   -5.4369799            0            0            0            0            0            0 
10193000    554.45525    87051.453    545.17033   -248.34329    830.40014    582.05685    1285.9689   -248.34329            0   -6.0158622            0            0            0            0            0            0 
10194000    507.81464    92680.414    592.14552   -236.82417    901.95246     665.1283    1351.5153   -236.82417            0   -5.6504877            0            0            0            0            0            0 
10195000    497.31474    92177.522      521.774   -231.14384    794.76299    563.61915    1232.1666   -231.14384            0   -5.6813151            0            0            0            0            0            0 
10196000    463.42396    90148.174    558.30221   -256.00572    850.40253    594.39681    1203.6689   -256.00572            0   -5.8092086            0            0            0            0            0            0 
10197000    538.87666    92208.325    547.53277    -223.5655     833.9986     610.4331     1335.095    -223.5655            0   -5.6794172            0            0            0            0            0            0 
10198000    455.22034    92090.667    515.82921   -238.07766    785.70792    547.63026     1159.013   -238.07766            0   -5.6866734            0            0            0            0            0            0 
10199000    461.57894    88314.111    538.91349   -260.73138    820.86976    560.13838    1154.6385   -260.73138            0   -5.9298513            0            0            0            0            0            0 
10200000    427.33992    94273.246    579.72105   -251.10747    883.02758    631.92011    1219.4606   -251.10747            0   -5.5550177            0            0            0            0            0            0 
10201000    444.79277    92803.588     520.1077   -255.46921    792.22489    536.75568    1138.7583   -255.46921            0   -5.6429881            0            0            0            0            0            0 
10202000    505.39221    87785.839    531.25982   -259.99365    809.21173    549.21809    1196.2548   -259.99365            0   -5.9655356            0            0            0            0            0            0 
10203000    474.39803    88905.731    511.74904   -249.15366    779.49303    530.33936    1145.4433   -249.15366            0   -5.8903913            0            0            0            0            0            0 
10204000    474.74232    91229.715    524.46958   -240.90832    798.86889    557.96057    1189.6013   -240.90832            0   -5.7403396            0            0            0            0            0            0 
10205000     551.7533    88326.275    564.65069   -243.85971    860.07251     616.2128    1326.9528   -243.85971            0   -5.9290347            0            0            0            0            0            0 
10206000    470.52997    95153.805    576.79192   -229.79509    878.56596    648.77087     1301.735   -229.79509            0   -5.5036112            0            0            0            0            0            0 
10207000    455.35435    95043.918    532.97304   -235.46266    811.82131    576.35865    1207.5335   -235.46266            0   -5.5099743            0            0            0            0            0            0 
10208000    516.67518    89128.756    534.73059   -249.06085    814.49839    565.43754    1237.0385   -249.06085            0   -5.8756519            0            0            0            0            0            0 
10209000    543.57278    94745.563    561.87635   -228.03085    855.84665     627.8158    1378.9067   -228.03085            0   -5.5273253            0            0            0            0            0            0 
10210000    498.79476    93856.307    559.91403   -230.60003    852.85765    622.25762    1305.0069   -230.60003            0   -5.5796948            0            0            0            0            0            0 
10211000    501.13032    88626.076    489.58937   -246.27577    745.73957    499.46379     1147.185   -246.27577            0   -5.9089782            0            0            0            0            0            0 
10212000     409.8932     90118.07    518.24538   -254.05439    789.38822    535.33384    1074.0481   -254.05439            0   -5.8111491            0            0            0            0            0            0 
10213000    452.37465    86560.779    526.66926   -264.98095    802.21942    537.23847    1108.3163   -264.98095            0   -6.0499634            0            0            0            0            0            0 
10214000    470.56859    95507.722     535.8229   -226.88372    816.16219    589.27847    1244.7251   -226.88372            0   -5.4832168            0            0            0            0            0            0 
10215000    554.26557    90405.053    549.32129   -233.09673    836.72286    603.62613    1334.4059   -233.09673            0   -5.7927021            0            0            0            0            0            0 
10216000    518.67952      87042.6    560.96765    -257.0676    854.46252    597.39491    1255.8207    -257.0676            0    -6.016474            0            0            0            0            0            0 
10217000    536.60935    89508.073    527.64584    -234.7605    803.70694    568.94644    1269.4274    -234.7605            0   -5.8507521            0            0            0            0            0            0 
10218000    455.30468    91500.945     532.5214   -255.04638    811.13337      556.087    1163.6672   -255.04638            0   -5.7233239            0            0            0            0            0            0 
10219000    529.62564    91572.461    547.12074   -232.46835    833.37099    600.90264    1308.2126   -232.46835            0   -5.7188541            0            0            0            0            0            0 
10220000    531.16335     89521.79    548.52606   -240.36311    835.51157    595.14846    1288.6266   -240.36311            0   -5.8498556            0            0            0            0            0            0 
10221000    455.59607    95155.842    531.15274   -230.31986    809.04864    578.72878    1210.9824   -230.31986            0   -5.5034934            0            0            0            0            0            0 
10222000    514.11851    89547.875     554.8597   -255.24523    845.15893     589.9137    1261.3339   -255.24523            0   -5.8481516            0            0            0            0            0            0 
10223000    462.74805    85952.388    514.54767   -261.52436    783.75588    522.23153    1102.2989   -261.52436            0   -6.0927864            0            0            0            0            0            0 
10224000    450.31238    90296.907    514.04486    -248.0664    782.99001    534.92362    1127.9345    -248.0664            0   -5.7996399            0            0            0            0            0            0 
10225000    481.21428    97057.863    551.91469   -223.81619     840.6731    616.85691    1298.0106   -223.81619            0   -5.3956427            0            0            0            0            0            0 
10226000    493.20001    88156.394    523.56609   -254.53727    797.49269    542.95542    1177.0482   -254.53727            0   -5.9404601            0            0            0            0            0            0 
10227000    456.81176    90437.263    539.41838   -245.31676    821.63881    576.32206    1178.8269   -245.31676            0    -5.790639            0            0            0            0            0            0 
10228000    482.84957    93101.095    550.70993   -237.64184    838.83802    601.19618    1256.8016   -237.64184            0   -5.6249558            0            0            0            0            0            0 
10229000    407.28875    93157.112    502.58803   -246.31567    765.53904    519.22336    1072.5662   -246.31567            0   -5.6215734            0            0            0            0            0            0 
10230000    502.29683    92039.753    530.91274   -234.21047    808.68307     574.4726    1248.7083   -234.21047            0   -5.6898191            0            0            0            0            0            0 
10231000    443.93452    88765.619    551.66039   -253.02758    840.28576    587.25818    1161.9561   -253.02758            0    -5.899689            0            0            0            0            0            0 
10232000     510.2075    89103.523    534.28003   -246.03329    813.81211    567.77881     1230.785   -246.03329            0   -5.8773158            0            0            0            0            0            0 
10233000    416.63244    96668.068    545.80548   -241.62643     831.3676    589.74117    1177.1115   -241.62643            0   -5.4173995            0            0            0            0            0            0 
10234000    462.31817    91254.964    560.28139   -256.05348    853.41721    597.36373    1212.6445   -256.05348            0   -5.7387513            0            0            0            0            0            0 
10235000    494.07003    89909.404    575.99857   -252.20703    877.35753     625.1505    1272.9931   -252.20703            0    -5.824636            0            0            0            0            0            0 
10236000    429.45511     92585.92    512.71711   -247.22336     780.9676    533.74424    1113.6249   -247.22336            0   -5.6562547            0            0            0            0            0            0 
10237000    479.28844    88635.842    573.90645   -255.82345    874.17082    618.34737    1237.9057   -255.82345            0   -5.9083271            0            0            0            0            0            0 
10238000    558.42287    90271.931    549.38746   -231.89022    836.82365    604.93343    1340.1103   -231.89022            0   -5.8012445            0            0            0            0            0            0 
10239000    515.24937    90591.248    529.51293    -242.6991    806.55088    563.85178    1244.5892    -242.6991            0   -5.7807962            0            0            0            0            0            0 
10240000    420.27969    96396.426    535.43025   -231.88826    815.56411    583.67585    1174.5231   -231.88826            0   -5.4326656            0            0            0            0            0            0 
10241000    573.63484    85011.593    532.73114   -256.86335    811.45285    554.58949    1265.7859   -256.86335            0   -6.1602133            0            0            0            0            0            0 
10242000    513.46046    91605.345    564.61607   -242.41237    860.01977     617.6074    1303.5752   -242.41237            0   -5.7168012            0            0            0            0            0            0 
10243000    483.11915    95572.236    547.69664   -226.76921     834.2482    607.47899    1280.8616   -226.76921            0   -5.4795155            0            0            0            0            0            0 
10244000    529.69243    89946.082    544.58884   -245.58464    829.51441    583.92978    1278.7651   -245.58464            0   -5.8222607            0            0            0            0            0            0 
10245000    423.49279    95595.047    503.28659   -233.51955    766.60308    533.08352    1123.4984   -233.51955            0   -5.4782079            0            0            0            0            0            0 
10246000    496.79286     88469.85    547.88098   -258.31063    834.52898    576.21835    1217.2014   -258.31063            0   -5.9194126            0            0            0            0            0            0 
10247000    470.40435    91860.318    558.14809   -256.30114    850.16779    593.86664    1224.0619   -256.30114            0   -5.7009333            0            0            0            0            0            0 
10248000     461.1061    90361.947    532.24147   -257.49113    810.70698    553.21585    1160.8782   -257.49113            0   -5.7954655            0            0            0            0            0            0 
10249000     466.8005    88953.573    516.37324   -254.33129    786.53658     532.2053     1137.784   -254.33129            0   -5.8872233            0            0            0            0            0            0 
10250000    409.56027    99005.432    545.99394   -227.50019    831.65467    604.15447    1195.5155   -227.50019            0   -5.2895032            0            0            0            0            0            0 
10251000    494.03259    89969.419    548.14124   -247.14538    834.92541    587.78003     1236.006   -247.14538            0   -5.8207505            0            0            0            0            0            0 
10252000    456.72291    89897.129     543.4064   -247.63261    827.71333    580.08073    1178.8707   -247.63261            0   -5.8254313            0            0            0            0            0            0 
10253000    448.58482    94102.637    514.69482   -236.04009    783.98003    547.93994    1163.5735   -236.04009            0   -5.5650889            0            0            0            0            0            0 
10254000    510.32444     90452.98    538.42426   -241.78648    820.12457    578.33808    1251.5397   -241.78648            0   -5.7896328            0            0            0            0            0            0 
10255000    519.87445    90177.936    547.62985    -245.8947    834.14647    588.25177    1271.9661    -245.8947            0   -5.8072913            0            0            0            0            0            0 
10256000    496.55671     92654.09    541.20322   -239.22129    824.35746    585.13617    1256.1158   -239.22129            0   -5.6520931            0            0            0            0            0            0 
10257000    480.90045    90641.821    501.54762    -244.6667    763.95429    519.28759    1154.9985    -244.6667            0   -5.7775708            0            0            0            0            0            0 
10258000    466.26557    89991.287    533.60313    -258.2188    812.78105    554.56225    1166.5035    -258.2188            0   -5.8193361            0            0            0            0            0            0 
10259000    516.41966    89097.562    516.94339   -241.58166    787.40503    545.82337    1216.8573   -241.58166            0   -5.8777091            0            0            0            0            0            0 
10260000    477.10872    97077.609    560.26596   -232.90434    853.39371    620.48937    1295.9691   -232.90434            0   -5.3945452            0            0            0            0            0            0 
10261000    526.86703    92519.776     563.3735   -233.65963     858.1271    624.46746    1335.3723   -233.65963            0   -5.6602985            0            0            0            0            0            0 
10262000    500.98947    90749.261    529.68974   -237.41507     806.8202    569.40513    1232.4571   -237.41507            0   -5.7707307            0            0            0            0            0            0 
10263000     447.5911    96018.046    547.26703   -230.77106    833.59382    602.82277    1229.5956   -230.77106            0   -5.4540742            0            0            0            0            0            0 
10264000    538.05205    93468.341     560.3296   -230.05251    853.49065    623.43814    1356.8783   -230.05251            0   -5.6028548            0            0            0            0            0            0 
10265000    582.66953    85443.772    519.93363   -253.42448    791.95975    538.53528    1264.6055   -253.42448            0   -6.1290546            0            0            0            0            0            0 
10266000    426.49313    92584.394    525.06811   -254.39605    799.78056    545.38451    1121.2562   -254.39605            0   -5.6563479            0            0            0            0            0            0 
10267000    513.09651    91874.848    521.04304   -239.79346     793.6496    553.85614    1241.3544   -239.79346            0   -5.7000317            0            0            0            0            0            0 
10268000    531.69954    88269.026     572.1614   -252.16363    871.51278    619.34915     1303.813   -252.16363            0   -5.9328801            0            0            0            0            0            0 
10269000    488.04866    86240.801    540.97988   -267.00864    824.01727    557.00862    1170.8438   -267.00864            0   -6.0724105            0            0            0            0            0            0 
10270000    462.56333    89585.098    515.38364   -251.75485    785.02924     533.2744    1137.6165   -251.75485            0   -5.8457216            0            0            0            0            0            0 
10271000    498.31879    92387.808    543.82212   -234.34781    828.34655    593.99874    1265.4242   -234.34781            0   -5.6683837            0            0            0            0            0            0 
10272000    475.90364    93644.656    550.34057   -237.98032    838.27542     600.2951    1250.2421   -237.98032            0   -5.5923057            0            0            0            0            0            0 
10273000    545.11127    90105.902    550.11737   -238.22128    837.93544    599.71416    1316.0461   -238.22128            0   -5.8119339            0            0            0            0            0            0 
10274000    484.79228    88960.449    527.32036   -252.85349    803.21117    550.35768    1179.3257   -252.85349            0   -5.8867682            0            0            0            0            0            0 
10275000    425.84328     99037.72    538.62247   -220.86616    820.42647    599.56031    1214.6328   -220.86616            0   -5.2877787            0            0            0            0            0            0 
10276000    486.75598    89418.154    538.48777   -249.85005    820.22131    570.37126    1205.1361   -249.85005            0   -5.8566356            0            0            0            0            0            0 
10277000    524.95452    90744.669    539.05499   -236.60786    821.08529    584.47744    1279.2117   -236.60786            0   -5.7710227            0            0            0            0            0            0 
10278000    550.94326    92427.738    567.35866   -230.18689    864.19727    634.01038    1376.6619   -230.18689            0   -5.6659349            0            0            0            0            0            0 
10279000     555.4224    88884.804    554.83053   -230.34107    845.11449    614.77342     1334.764   -230.34107            0   -5.8917781            0            0            0            0            0            0 
10280000    406.03049    95084.045    542.79691   -241.94275    826.78496    584.84221     1147.886   -241.94275            0    -5.507649            0            0            0            0            0            0 
10281000     518.0807    87850.258    522.42804   -248.75064    795.75922    547.00857    1210.7766   -248.75064            0   -5.9611611            0            0            0            0            0            0 
10282000    519.29967    93574.151    562.27819   -230.81805    856.45873    625.64068    1334.3201   -230.81805            0   -5.5965193            0            0            0            0            0            0 
10283000    420.28636    96359.416    523.07956   -228.74365    796.75161    568.00796    1158.6377   -228.74365            0   -5.4347522            0            0            0            0            0            0 
10284000    536.88212    88896.319    557.33406   -245.76953    848.92787    603.15833    1299.2054   -245.76953            0   -5.8910149            0            0            0            0            0            0 
10285000    472.11802    90237.282    552.14919   -257.61405     841.0303    583.41625    1204.7322   -257.61405            0    -5.803472            0            0            0            0            0            0 
10286000    437.41609    91293.516    531.25442   -251.12843    809.20351    558.07509    1140.4606   -251.12843            0   -5.7363279            0            0            0            0            0            0 
10287000    496.62092    95277.311    562.94885    -230.7859    857.48027    626.69438      1316.76    -230.7859            0   -5.4964769            0            0            0            0            0            0 
10288000    581.86818    88679.067    575.51507   -248.55682    876.62106    628.06424    1380.5904   -248.55682            0   -5.9054472            0            0            0            0            0            0 
10289000    489.16778    86243.574    538.64904   -257.95138    820.46695    562.51557    1177.7781   -257.95138            0   -6.0722153            0            0            0            0            0            0 
10290000    396.46144    94048.259    500.27501   -236.44049    762.01586    525.57537    1069.3608   -236.44049            0   -5.5683067            0            0            0            0            0            0 
10291000    499.77975    92530.348     545.4806   -245.82608    830.87274    585.04666    1259.4795   -245.82608            0   -5.6596518            0            0            0            0            0            0 
10292000    475.58791    91644.093    572.32685   -246.01079    871.76478    625.75399    1261.3939   -246.01079            0    -5.714384            0            0            0            0            0            0 
10293000    545.90487    90185.985    566.20854   -239.22355    862.44541    623.22186    1341.2342   -239.22355            0   -5.8067731            0            0            0            0            0            0 
10294000    491.24194    92709.509     525.8936   -233.41098    801.03795    567.62697     1231.822   -233.41098            0   -5.6487145            0            0            0            0            0            0 
10295000    524.44907    96722.044    552.27122   -209.16234    841.21617    632.05383    1371.8374   -209.16234            0   -5.4143763            0            0            0            0            0            0 
10296000    481.14714    87165.756    515.10573   -252.66796    784.60592    531.93796    1143.5833   -252.66796            0   -6.0079735            0            0            0            0            0            0 
10297000    453.04528     91394.86     533.4774   -247.47275    812.58955     565.1168     1168.981   -247.47275            0   -5.7299671            0            0            0            0            0            0 
10298000    454.82228      93065.9    506.33562   -230.98168    771.24735    540.26567    1157.5826   -230.98168            0    -5.627083            0            0            0            0            0            0 
10299000    556.69738    89140.193    521.83945   -232.44711    794.86269    562.41558    1286.1324   -232.44711            0   -5.8748981            0            0            0            0            0            0 
10300000    457.77228    95114.982    531.93568   -233.82883     810.2412    576.41237    1211.4132   -233.82883            0   -5.5058576            0            0            0            0            0            0 
10301000    489.09545    91137.887    559.70876   -251.32376    852.54499    601.22123    1251.3037   -251.32376            0   -5.7461234            0            0            0            0            0            0 
10302000     544.6948    85639.342    535.54761   -255.01277    815.74287    560.73011    1241.0332   -255.01277            0    -6.115058            0            0            0            0            0            0 
10303000    523.20749    92658.188    513.24323   -229.56298    781.76897    552.20599    1259.2292   -229.56298            0   -5.6518431            0            0            0            0            0            0 
10304000    496.07745    91827.994    526.91136   -234.65336    802.58819    567.93483    1232.2902   -234.65336            0     -5.70294            0            0            0            0            0            0 
10305000    440.27395    94040.321    567.59144   -249.81747    864.55184    614.73437     1218.562   -249.81747            0   -5.5687767            0            0            0            0            0            0 
10306000    445.20522    94349.511    540.84725   -238.63126    823.81526      585.184    1197.7823   -238.63126            0   -5.5505274            0            0            0            0            0            0 
10307000    452.53154    90348.448    534.76854    -250.3502     814.5562      564.206    1160.4794    -250.3502            0   -5.7963314            0            0            0            0            0            0 
10308000    444.22263      90211.8     507.1928   -252.77674    772.55299    519.77625    1104.2162   -252.77674            0   -5.8051114            0            0            0            0            0            0 
10309000    474.90424    88814.278    533.17819   -247.62323    812.13379    564.51056    1179.6375   -247.62323            0   -5.8964567            0            0            0            0            0            0 
10310000    449.32072     93427.09    537.38652   -237.58789    818.54388    580.95599    1193.1727   -237.58789            0   -5.6053287            0            0            0            0            0            0 
10311000    472.63682    93555.138     540.4351   -239.97228    823.18746    583.21518    1228.0836   -239.97228            0   -5.5976567            0            0            0            0            0            0 
10312000     489.9794    91690.233    489.57577    -232.4861    745.71885    513.23275    1168.4371    -232.4861            0   -5.7115085            0            0            0            0            0            0 
10313000    535.58049    86237.944    530.71637   -257.85558    808.38395    550.52837    1224.1236   -257.85558            0   -6.0726117            0            0            0            0            0            0 
10314000    484.92991    96676.629    548.30649   -216.70528    835.17713    618.47184    1302.1888   -216.70528            0   -5.4169198            0            0            0            0            0            0 
10315000    474.54965    91131.983    571.88588   -248.47254     871.0931    622.62056    1253.3286   -248.47254            0   -5.7464957            0            0            0            0            0            0 
10316000    471.70627    89512.349    519.13004   -251.91663    790.73574    538.81911    1154.6061   -251.91663            0   -5.8504726            0            0            0            0            0            0 
10317000     458.6466    94379.145    559.45083   -247.45871    852.15212    604.69341    1235.9852   -247.45871            0   -5.5487846            0            0            0            0            0            0 
10318000    510.02345     88084.59    573.50714   -254.52028    873.56259    619.04231    1274.2304   -254.52028            0   -5.9453026            0            0            0            0            0            0 
10319000    489.28492    88710.464    564.43112   -255.56408    859.73805    604.17397    1237.1869   -255.56408            0    -5.903357            0            0            0            0            0            0 
10320000    403.32207     94029.59    528.05331   -249.59225    804.32759    554.73535     1107.821   -249.59225            0   -5.5694122            0            0            0            0            0            0 
10321000    497.49826    86317.618    542.92623   -264.04553    826.98194    562.93641     1189.214   -264.04553            0   -6.0670065            0            0            0            0            0            0 
10322000    505.96676    90824.457    546.90609   -240.14672    833.04403    592.89731    1263.0915   -240.14672            0   -5.7659529            0            0            0            0            0            0 
10323000    487.31049    90935.217    557.24806   -248.99406    848.79686     599.8028    1246.0724   -248.99406            0     -5.75893            0            0            0            0            0            0 
10324000    500.53912    88802.293    530.45503   -252.52851    807.98588    555.45738    1203.7008   -252.52851            0   -5.8972525            0            0            0            0            0            0 
10325000    505.29474    89930.827    522.37177   -242.70065    795.67351    552.97286    1215.6916   -242.70065            0   -5.8232484            0            0            0            0            0            0 
10326000    478.42034    96539.877    552.54927    -234.0291     841.6397     607.6106    1281.1954    -234.0291            0    -5.424593            0            0            0            0            0            0 
10327000     438.1187    91935.659    514.74088   -249.74263    784.05019    534.30756    1121.7315   -249.74263            0   -5.6962614            0            0            0            0            0            0 
10328000    558.77353    83371.763    552.28119    -278.0109    841.23136    563.22046    1242.6285    -278.0109            0   -6.2813779            0            0            0            0            0            0 
10329000    535.52816    93284.491    564.24244   -229.33695    859.45067    630.11372    1358.6776   -229.33695            0   -5.6138972            0            0            0            0            0            0 
10330000    427.30701    93689.564    563.77873   -245.69299    858.74435    613.05136    1196.9092   -245.69299            0   -5.5896252            0            0            0            0            0            0 
10331000    482.44692    91981.364    497.27595   -228.21314    757.44771    529.23458    1176.4149   -228.21314            0   -5.6934309            0            0            0            0            0            0 
10332000    565.42682     88453.14    553.25178   -245.93553    842.70976    596.77423    1326.1739   -245.93553            0   -5.9205309            0            0            0            0            0            0 
10333000    511.56514    89205.886    554.42747   -257.57725    844.50057    586.92332    1252.4575   -257.57725            0   -5.8705717            0            0            0            0            0            0 
10334000    471.11241     94156.56    525.49493   -234.46408    800.43069     565.9666    1212.8873   -234.46408            0   -5.5619019            0            0            0            0            0            0 
10335000    469.41007    93819.218    518.42076   -239.79954    789.65535    549.85581    1192.1294   -239.79954            0   -5.5819006            0            0            0            0            0            0 
10336000    516.96853    90193.157    539.22985   -243.69002    821.35164    577.66162    1257.6689   -243.69002            0   -5.8063113            0            0            0            0            0            0 
10337000    560.73251    85160.766    559.12146   -250.95687    851.65041    600.69354    1297.1135   -250.95687            0   -6.1494227            0            0            0            0            0            0 
10338000    497.76246    93264.005    519.17006   -230.68034    790.79669    560.11635    1237.1529   -230.68034            0   -5.6151304            0            0            0            0            0            0 
10339000    427.18458    95503.935    521.36225   -242.04487    794.13582    552.09095    1147.0851   -242.04487            0   -5.4834342            0            0            0            0            0            0 
10340000    454.15355    94014.601    538.07874   -239.77995    819.59828    579.81833    1202.5112   -239.77995            0   -5.5703001            0            0            0            0            0            0 
10341000     459.1551    89950.932     551.9588   -253.90102    840.74029    586.83927    1189.1782   -253.90102            0   -5.8219469            0            0            0            0            0            0 
10342000    494.33202    87443.449    551.24894    -251.9341    839.65904    587.72494    1218.1332    -251.9341            0    -5.988894            0            0            0            0            0            0 
10343000     531.9392     87636.59    552.46236   -255.37177    841.50731    586.13554    1266.0016   -255.37177            0   -5.9756951            0            0            0            0            0            0 
10344000     416.4068    93919.128    548.71025   -251.24032    835.79212    584.55181    1154.9101   -251.24032            0   -5.5759626            0            0            0            0            0            0 
10345000    489.14635    93049.224    541.77579    -238.3795     825.2296     586.8501    1250.6351    -238.3795            0   -5.6280915            0            0            0            0            0            0 
10346000    519.77605    86757.572    533.59425   -255.72941    812.76753    557.03812    1214.6953   -255.72941            0   -6.0362402            0            0            0            0            0            0 
10347000    431.98866    94495.323    518.70855   -243.75217    790.09371    546.34155    1141.6726   -243.75217            0   -5.5419626            0            0            0            0            0            0 
10348000    526.48295    89799.959    544.71048   -254.13299    829.69971    575.56672      1265.07   -254.13299            0   -5.8317348            0            0            0            0            0            0 
10349000    520.12791    93550.518    567.08331   -229.54426    863.77786     634.2336    1343.8641   -229.54426            0   -5.5979331            0            0            0            0            0            0 
10350000    487.65121    90176.186    572.19939   -258.09109    871.57065    613.47955    1254.8029   -258.09109            0    -5.807404            0            0            0            0            0            0 
10351000    516.08025    90432.577    516.94997   -243.88686    787.41506    543.52819    1224.1691   -243.88686            0   -5.7909391            0            0            0            0            0            0 
10352000     565.8402    91175.642    534.63872   -222.73398    814.35846    591.62447     1344.024   -222.73398            0    -5.743744            0            0            0            0            0            0 
10353000    494.14477    91455.902    556.07772   -237.27077    847.01421    609.74344    1268.8291   -237.27077            0   -5.7261427            0            0            0            0            0            0 
[...]
14939000    344.62988    99808.595    502.41172   -240.53716    765.27048    524.73332    1026.3786   -240.53716            0   -5.2469384            0            0            0            0            0            0 
14940000    527.29682    87665.653    531.18237   -245.84579    809.09377    563.24798    1237.4041   -245.84579            0   -5.9737141            0            0            0            0            0            0 
14941000    501.74056    87395.152    534.25626   -255.65971     813.7759    558.11619     1197.619   -255.65971            0   -5.9922036            0            0            0            0            0            0 
14942000    463.11089    93247.056    531.96357   -237.06319    810.28369     573.2205    1203.0109   -237.06319            0    -5.616151            0            0            0            0            0            0 
14943000    540.26851    91208.658    565.09221   -241.50089    860.74503    619.24413    1337.9011   -241.50089            0   -5.7416648            0            0            0            0            0            0 
14944000    447.59993     89444.71     556.4471   -257.27669    847.57685    590.30016    1174.1761   -257.27669            0   -5.8548968            0            0            0            0            0            0 
14945000    487.97886    89899.931    532.90042   -246.84469    811.71069      564.866    1204.6542   -246.84469            0   -5.8252497            0            0            0            0            0            0 
14946000    501.92856    94021.417    520.49083   -232.27475    792.80848    560.53373    1248.7812   -232.27475            0   -5.5698963            0            0            0            0            0            0 
14947000    457.13574    89775.884    549.79324   -259.46241    837.44173    577.97931    1176.5022   -259.46241            0   -5.8332987            0            0            0            0            0            0 
14948000    477.86277    88980.465    550.64694   -255.94309    838.74207    582.79899    1202.9162   -255.94309            0    -5.885444            0            0            0            0            0            0 
14949000    375.37771    93330.302    534.40302   -263.52976    813.99944    550.46968    1061.4063   -263.52976            0   -5.6111416            0            0            0            0            0            0 
14950000     479.8313    89119.252    518.83723   -262.31504    790.28973    527.97469    1151.6176   -262.31504            0   -5.8762785            0            0            0            0            0            0 
14951000    475.42754    99165.658    550.37893   -219.71027    838.33385    618.62359    1306.2009   -219.71027            0   -5.2809567            0            0            0            0            0            0 
14952000    537.31408    87071.378    528.90928   -245.71612     805.6314    559.91529    1242.2218   -245.71612            0   -6.0144855            0            0            0            0            0            0 
14953000    512.65822     89212.86    525.32962   -251.56083    800.17888    548.61806    1215.6264   -251.56083            0   -5.8701127            0            0            0            0            0            0 
14954000    459.29528     93803.48    523.53843   -232.06984    797.45056    565.38072    1193.7093   -232.06984            0    -5.582837            0            0            0            0            0            0 
14955000    499.61257    90653.466    572.21946   -243.59586     871.6012    628.00534     1288.537   -243.59586            0   -5.7768287            0            0            0            0            0            0 
14956000    537.11728    84924.262    527.93268   -262.44362    804.14386    541.70024    1206.9378   -262.44362            0   -6.1665481            0            0            0            0            0            0 
14957000    533.24239    93673.271    589.82326   -233.08278    898.41521    665.33243    1393.8101   -233.08278            0   -5.5905974            0            0            0            0            0            0 
14958000    515.03429    94493.807    539.98524   -217.68203    822.50225    604.82022    1314.5865   -217.68203            0   -5.5420515            0            0            0            0            0            0 
14959000    540.11268    88433.716    522.07262   -234.12218    795.21785    561.09567    1257.6871   -234.12218            0   -5.9218313            0            0            0            0            0            0 
14960000    525.85699    92618.291    566.64889   -227.68174    863.11615    635.43442    1345.7319   -227.68174            0   -5.6542778            0            0            0            0            0            0 
14961000     514.6615    93891.691    564.35334   -234.05734    859.61959    625.56225    1330.2954   -234.05734            0    -5.577592            0            0            0            0            0            0 
14962000     557.4267    87600.426    563.13044   -246.47747    857.75687    611.27939    1323.4268   -246.47747            0   -5.9781621            0            0            0            0            0            0 
14963000     422.0595    90872.663    538.68847   -259.96206    820.52701    560.56495    1119.9139   -259.96206            0   -5.7628942            0            0            0            0            0            0 
14964000    469.93962    92590.509    541.93983   -244.12374    825.47947    581.35572    1215.9329   -244.12374            0   -5.6559744            0            0            0            0            0            0 
14965000    528.73805    87335.417    550.37935   -249.18443    838.33448    589.15005    1262.6024   -249.18443            0   -5.9963021            0            0            0            0            0            0 
14966000    470.45925    91127.257    510.83429   -249.00648    778.09969    529.09321    1154.3324   -249.00648            0   -5.7467937            0            0            0            0            0            0 
14967000    422.60306    93116.271    529.22789   -241.41638    806.11671    564.70032    1138.5975   -241.41638            0    -5.624039            0            0            0            0            0            0 
14968000    515.22957    88508.729     547.9468   -246.82152    834.62925    587.80773    1252.8707   -246.82152            0   -5.9168124            0            0            0            0            0            0 
14969000    494.25762    92151.009    546.05973   -242.11424    831.75488    589.64063    1253.8873   -242.11424            0   -5.6829497            0            0            0            0            0            0 
14970000    448.30882    99170.817    515.27583   -222.00377    784.86501    562.86124    1211.2524   -222.00377            0    -5.280682            0            0            0            0            0            0 
14971000    437.75006    92254.465    533.83408   -254.58006    813.13283    558.55277    1147.5178   -254.58006            0   -5.6765767            0            0            0            0            0            0 
14972000    472.06867    87296.497     487.2583   -253.37516    742.18888    488.81372    1089.8184   -253.37516            0   -5.9989755            0            0            0            0            0            0 
14973000    474.34372    92680.722    551.84512   -239.63016    840.56714    600.93698    1242.0852   -239.63016            0    -5.650469            0            0            0            0            0            0 
14974000    585.10124    89247.908    576.95922   -238.90916    878.82078    639.91162    1401.4731   -238.90916            0   -5.8678075            0            0            0            0            0            0 
14975000     513.8511    88144.029    556.66075   -262.88778    847.90227    585.01449    1245.5651   -262.88778            0   -5.9412935            0            0            0            0            0            0 
14976000    539.57519    95167.444    568.14654   -224.35662    865.39736    641.04074    1389.9277   -224.35662            0   -5.5028224            0            0            0            0            0            0 
14977000    493.85465    87173.235    546.15012    -257.7092    831.89255    574.18335    1202.0367    -257.7092            0    -6.007458            0            0            0            0            0            0 
14978000    487.24964    89353.796    524.32099   -250.39829    798.64255    548.24425    1183.1956   -250.39829            0   -5.8608539            0            0            0            0            0            0 
14979000    520.85455    96517.312    569.04553   -219.73335     866.7667    647.03335    1380.1913   -219.73335            0   -5.4258613            0            0            0            0            0            0 
14980000    521.25682    90715.784    538.72113   -239.88283    820.57675    580.69392     1270.315   -239.88283            0   -5.7728603            0            0            0            0            0            0 
14981000    427.32504    93094.693    502.74329   -249.31293    765.77552    516.46259    1096.6378   -249.31293            0   -5.6253427            0            0            0            0            0            0 
14982000    517.04602    90133.371    533.34863   -237.02397     812.3934    575.36943    1255.0278   -237.02397            0   -5.8101627            0            0            0            0            0            0 
14983000    508.08749    89500.276     572.8891   -244.35555     872.6212    628.26565    1291.4569   -244.35555            0   -5.8512618            0            0            0            0            0            0 
14984000    429.12654    87670.562    544.70803   -274.87233    829.69597    554.82364    1103.4985   -274.87233            0   -5.9733796            0            0            0            0            0            0 
14985000    434.57854    91558.795    503.80159    -250.3574    767.38753    517.03013     1097.319    -250.3574            0   -5.7197077            0            0            0            0            0            0 
14986000    479.46042    92407.931    553.25945   -248.70419    842.72145    594.01726     1240.174   -248.70419            0   -5.6671493            0            0            0            0            0            0 
14987000    573.78148     88339.09    553.17428   -242.54814    842.59171    600.04357    1339.2664   -242.54814            0   -5.9281745            0            0            0            0            0            0 
14988000     524.7354    90009.675    542.62405   -241.96358    826.52166    584.55807    1273.3776   -241.96358            0   -5.8181473            0            0            0            0            0            0 
14989000    430.80436    91156.813    521.57102   -261.74168    794.45381    532.71213    1105.4358   -261.74168            0   -5.7449304            0            0            0            0            0            0 
14990000    406.82593        94995    528.06035   -253.01977    804.33833    551.31856    1114.9371   -253.01977            0   -5.5128116            0            0            0            0            0            0 
14991000    561.61445    90189.716    525.54633   -233.79794    800.50898    566.71104    1305.4163   -233.79794            0   -5.8065328            0            0            0            0            0            0 
14992000    573.38708    88779.893    544.41361   -241.66055    829.24751    587.58697    1329.9877   -241.66055            0   -5.8987404            0            0            0            0            0            0 
14993000    436.83493    97541.691    581.19099   -242.45414    885.26658    642.81244      1264.23   -242.45414            0   -5.3688791            0            0            0            0            0            0 
14994000    476.80545    88493.121     541.1818   -260.38248    824.32484    563.94236    1179.2986   -260.38248            0    -5.917856            0            0            0            0            0            0 
14995000    527.81167     89106.26    519.38774   -244.83542    791.12826    546.29285    1232.1965   -244.83542            0   -5.8771353            0            0            0            0            0            0 
14996000    500.70577    92740.165    561.36375   -237.88106    855.06586     617.1848    1294.3995   -237.88106            0   -5.6468472            0            0            0            0            0            0 
14997000    404.69858     91757.96    539.52358   -258.98877    821.79904    562.81027    1104.3762   -258.98877            0   -5.7072928            0            0            0            0            0            0 
14998000    457.31102    89684.318    528.38825   -260.41653    804.83778    544.42124    1142.5629   -260.41653            0   -5.8392543            0            0            0            0            0            0 
14999000    466.65924    93489.165    558.31774   -243.60642     850.4262    606.81978    1243.0833   -243.60642            0   -5.6016068            0            0            0            0            0            0 
15000000    563.28325    85683.972    543.75584   -258.77645     828.2456    569.46915    1273.3551   -258.77645            0   -6.1118729            0            0            0            0            0            0 
Loop time of 1116.32 on 8 procs for 5000000 steps with 512 atoms

Pair  time (%) = 523.479 (46.8932)
Bond  time (%) = 0.438403 (0.0392721)
Neigh time (%) = 26.2479 (2.35128)
Comm  time (%) = 406.754 (36.437)
Outpt time (%) = 0.259625 (0.0232572)
Other time (%) = 159.142 (14.256)

Nlocal:    64 ave 68 max 58 min
Histogram: 1 0 0 1 1 0 0 3 0 2
Nghost:    986.5 ave 999 max 972 min
Histogram: 1 0 0 1 2 0 2 0 1 1
Neighs:    3854.75 ave 4421 max 3253 min
Histogram: 1 1 1 0 0 1 1 2 0 1

Total # of neighbors = 30838
Ave neighs/atom = 60.2305
Ave special neighs/atom = 0
Neighbor list builds = 107914
Dangerous builds = 0

Averages
Group Pressure(MPa) Volume(m3) Temperature(K) PE(J) KE(J) ET(J) ET^2(J) H(J) H^2(J^2) V^2(m6) V*H(m3*J) Hconf(J) Uext*Hconf(J^2) V*Hconf(m3*J) Uext(J)
Block1 49.962320874119029668 9.1287594880051672147e-26 540.07890590604802128 -1.6884531074871685676e-18 5.7154858301075897898e-18 4.0270327226204268075e-18 1.6266913657679480986e-35 8.5802450241495941643e-18 7.3908445851539928151e-35 8.3431517183863119449e-51 7.8321645524878676557e-43 2.8647591940419989819e-18 -4.8166449254280826216e-36 2.614663512518129502e-43 -1.6884531074871685676e-18
Block2 50.260501586523346873 9.137813570996500359e-26 540.32329627970045749 -1.6825057601117775756e-18 5.7180721368534173743e-18 4.0355663767416426877e-18 1.6338420043996020301e-35 8.6207771657339076957e-18 7.4601203212164829519e-35 8.3605147087323055861e-51 7.8779437452638674965e-43 2.9027050288805011066e-18 -4.8620349118389694112e-36 2.6528242488533573836e-43 -1.6825057601117775756e-18
Block3 49.647707066841796575 9.1421094376531686145e-26 540.12658474381919405 -1.6900289083087336542e-18 5.7159904003077958085e-18 4.0259614919990602284e-18 1.6259081453855335191e-35 8.5578463676158639468e-18 7.3526974021068713473e-35 8.3673416865019483522e-51 7.8237125104389455734e-43 2.841855967308075842e-18 -4.7822370759518008267e-36 2.5980315671391816576e-43 -1.6900289083087336542e-18
Block4 49.919489030953187125 9.1311867987875457082e-26 539.81282824097763751 -1.6905784447530934949e-18 5.712670013552286429e-18 4.0220915687991971711e-18 1.6226383852327888857e-35 8.5723114883904912079e-18 7.377194713757196935e-35 8.3481730442188157362e-51 7.8273269777959992273e-43 2.8596414748381924529e-18 -4.8128462775290591445e-36 2.6108454697471963595e-43 -1.6905784447530934949e-18
Block5 50.215214110509563739 9.1203091893438297508e-26 539.73327732264760925 -1.687381046600007013e-18 5.7118281511105011815e-18 4.024447104510489161e-18 1.6249390616939881061e-35 8.596075610088142088e-18 7.4184273898895221376e-35 8.3282585040267918438e-51 7.8393902153754129976e-43 2.8842474589776409066e-18 -4.8461043541134110246e-36 2.6300696850025962094e-43 -1.687381046600007013e-18
Ave_blocks 50.001046533789384796 9.1320356969572427886e-26 540.01497849863858391 -1.6877894534521559455e-18 5.7148093063863179626e-18 4.0270198529341633652e-18 1.6268037924959722883e-35 8.5854511311955992042e-18 7.3998568824248134512e-35 8.3494879323732351674e-51 7.8401076002724179529e-43 2.8706418248092820121e-18 -4.8239735089722642048e-36 2.6212868966520922224e-43 -1.6877894534521559455e-18
Stdev_blocks 0.2218940094711721045 7.5343113026989785378e-29 0.21532431387440162385 2.8746574989582420734e-21 2.2787097429070011071e-21 4.5841112913206054498e-21 3.773038270361342911e-38 2.1552656466678168207e-20 3.6865587685996831525e-37 1.365951316720316043e-53 1.9633256472345393981e-45 2.0963782925542032408e-20 2.7777321514031488004e-38 1.8790662143877496769e-45 2.8746574989582420734e-21






Properties
Group rho(kg/m3) Cp(J/K) Cp_conf(J/K) Cp_id(J/K) Cp2(J/K) kT(1/Pa) aP(1/K) aP2(1/K) Cv(J/K) uJT(K/Pa) sos(m/s) Cv2(J/K) uJT2(K/Pa) sos2(m/s) CvNVT(J/K)
Block1 149.40950277090416876 7.1475182325095422681e-20 -2.639665993523559713e-21 4.1595102230317964394e-20 3.8955436236794404681e-20 1.4289435763336954498e-08 -0.00014546330723930821324 -0.00013770818768452620863 7.1402175945094868951e-20 -1.3775312915247287039e-06 684.73931185751507655 3.8890006763340466956e-20 -2.5176705199340693361e-06 684.96499300951313671 1.2396142819989055932e-20
Block2 149.26146232038814787 7.0309787533916460843e-20 -1.1828286506830771475e-21 4.1607597780129835491e-20 4.04247691294467606e-20 1.5478018446215762637e-08 0.00011899430913751802641 0.00010493634399958979946 7.0264619310391356149e-20 -1.2160887575430227341e-06 658.12443845360576233 4.0389642823095961237e-20 -2.1322827136385389379e-06 658.19903591821241662 1.3055507844579551354e-20
Block3 149.19132453178690412 7.2058014964665519465e-20 -1.9889973639524071248e-21 4.1597540080776458908e-20 3.960854271682405404e-20 1.3971673732226162096e-08 9.6966495911979452962e-06 -6.5879180594948464212e-06 7.2057682659618420928e-20 -1.2620703458885528665e-06 692.63590185675809607 3.9608389329344399277e-20 -2.3163285657269333358e-06 692.63564591075305543 1.2591183278338123165e-20
Block4 149.36978577627277787 7.1441690133997910138e-20 -2.1295830149635394106e-21 4.158149699973785384e-20 3.945191398477431443e-20 1.5158269886631455168e-08 -5.7374121947505658553e-05 -9.4341982587854759891e-05 7.1430985966471220235e-20 -1.3177167825198387276e-06 664.62449158944821193 3.9422971834746441411e-20 -2.432381573732689179e-06 664.81860121233250993 1.2219996773485461059e-20
Block5 149.54793611730113412 7.2540604355055775222e-20 -2.4830116034363380827e-21 4.1577429192697765798e-20 3.909441758926142621e-20 1.5088425213321564161e-08 -0.0001353592006691456775 -0.00012354216156070562727 7.2480829242217714988e-20 -1.3491229627604585545e-06 665.98866687360668948 3.9044623793471102023e-20 -2.4884498415738779813e-06 666.13857440665822196 1.3231271949880073529e-20
Ave_blocks 149.35600230333062655 7.1565055862546220077e-20 -2.0848173253117842957e-21 4.159183325673197689e-20 3.9507015931420189585e-20 1.4797164608346377727e-08 -4.1901134225448719245e-05 -5.1448781178598336006e-05 7.1527258624758723473e-20 -1.3045060280473203597e-06 673.22256212618674454 3.9471126908799676588e-20 -2.3774226429212216693e-06 673.35137009149389087 1.269882053325445361e-20
Stdev_blocks 0.12324564894353930156 7.4748892569389362162e-22 5.0817019370893386414e-22 1.1009900056698104241e-23 5.1576979295849419177e-22 5.6886122686814389941e-10 9.8233010950035548766e-05 9.0495051632227580148e-05 7.4964241060784329397e-22 5.8508605942347633669e-08 13.143231564430516656 5.262008929885849393e-22 1.4060089695314698109e-07 13.1239119807347695 3.8553913388909404266e-22






