LAMMPS (28 Oct 2012)
Scanning data file ...
Reading data file ...
  orthogonal box = (0 0 0) to (100 100 100)
  2 by 2 by 2 MPI processor grid
  512 atoms
Finding 1-2 1-3 1-4 neighbors ...
  0 = max # of 1-2 neighbors
  0 = max # of 1-3 neighbors
  0 = max # of 1-4 neighbors
  1 = max # of special neighbors
WARNING: Resetting reneighboring criteria during minimization (min.cpp:173)
Setting up minimization ...
Memory usage per processor = 4.05499 Mbytes
Step Temp E_pair E_mol TotEng Press 
       0       420.15    1409.7233            0    2049.6933    441.77095 
     701       420.15   -217.27527            0    422.69467    29.026049 
Loop time of 0.0535321 on 8 procs for 701 steps with 512 atoms

Minimization stats:
  Stopping criterion = energy tolerance
  Energy initial, next-to-last, final = 
         1409.72334813     -217.256630745     -217.275265106
  Force two-norm initial, final = 5034.49 0.337455
  Force max component initial, final = 2457.89 0.147661
  Final line search alpha, max atom move = 0.254892 0.0376377
  Iterations, force evaluations = 701 710

Pair  time (%) = 0.00894704 (16.7134)
Bond  time (%) = 6.31511e-05 (0.117969)
Neigh time (%) = 0.00314391 (5.87294)
Comm  time (%) = 0.0204525 (38.206)
Outpt time (%) = 0 (0)
Other time (%) = 0.0209255 (39.0897)

Nlocal:    64 ave 74 max 52 min
Histogram: 1 0 0 1 1 2 0 2 0 1
Nghost:    235.125 ave 266 max 224 min
Histogram: 4 0 2 0 0 1 0 0 0 1
Neighs:    316.25 ave 371 max 226 min
Histogram: 1 0 0 1 1 1 0 1 0 3

Total # of neighbors = 2530
Ave neighs/atom = 4.94141
Ave special neighs/atom = 0
Neighbor list builds = 60
Dangerous builds = 0
Setting up run ...
Memory usage per processor = 3.36354 Mbytes
Step Temp E_pair E_mol TotEng Press Volume 
     701       420.15   -217.27527            0    422.69467    29.026049      1000000 
 5000701    424.24361   -332.75034            0    313.45496    449.35064    72564.301 
Loop time of 1248.17 on 8 procs for 5000000 steps with 512 atoms

Pair  time (%) = 664.891 (53.2694)
Bond  time (%) = 0.459401 (0.0368061)
Neigh time (%) = 31.0803 (2.49008)
Comm  time (%) = 395.363 (31.6756)
Outpt time (%) = 4.13656e-05 (3.31411e-06)
Other time (%) = 156.371 (12.5281)

Nlocal:    64 ave 73 max 58 min
Histogram: 2 0 1 0 3 0 1 0 0 1
Nghost:    1094.62 ave 1130 max 1061 min
Histogram: 2 2 0 0 0 0 0 1 1 2
Neighs:    4553.12 ave 5487 max 3950 min
Histogram: 3 0 0 1 1 1 0 1 0 1

Total # of neighbors = 36425
Ave neighs/atom = 71.1426
Ave special neighs/atom = 0
Neighbor list builds = 95181
Dangerous builds = 5
Setting up run ...
Memory usage per processor = 3.96746 Mbytes
Step Press Volume Temp PotEng KinEng TotEng Enthalpy E_vdwl E_coul E_tail E_long E_bond E_angle E_dihed E_impro E_mol 
10000000    449.35064    72564.301    424.24361   -332.75034     646.2053    313.45496    788.99191   -332.75034            0   -7.2169033            0            0            0            0            0            0 
10001000    599.86588    68879.528    412.73807   -325.94822    628.68012     302.7319    905.31952   -325.94822            0   -7.6029782            0            0            0            0            0            0 
10002000    572.36901    70430.002    400.76069   -320.93334    610.43626    289.50291    877.41135   -320.93334            0   -7.4356032            0            0            0            0            0            0 
10003000    504.17519     69186.33    427.69484   -344.16085    651.46218    307.30133    816.01998   -344.16085            0   -7.5692632            0            0            0            0            0            0 
10004000     559.2629    69757.966    428.04199   -327.72121    651.99096    324.26975    893.23495   -327.72121            0   -7.5072365            0            0            0            0            0            0 
10005000    474.52789    73748.647    421.13087   -322.51619    641.46399    318.94779    829.32549   -322.51619            0   -7.1010054            0            0            0            0            0            0 
10006000    377.94393    72340.228    411.18145   -346.84779     626.3091    279.46131    678.19519   -346.84779            0   -7.2392576            0            0            0            0            0            0 
10007000    455.90625    68214.491    421.71514   -349.45014    642.35394    292.90381    746.45684   -349.45014            0   -7.6771012            0            0            0            0            0            0 
10008000    429.91679    72799.779    420.39599   -330.31129    640.34463    310.03333    766.48032   -330.31129            0   -7.1935596            0            0            0            0            0            0 
10009000    527.84976    70160.703    419.60281   -319.21846    639.13646      319.918    860.02542   -319.21846            0   -7.4641434            0            0            0            0            0            0 
10010000    435.59969    71017.187    413.45577   -338.58926    629.77332    291.18407    742.34025   -338.58926            0    -7.374124            0            0            0            0            0            0 
10011000    413.57956    76466.991    416.75981   -311.00327    634.80602    323.80274    785.02362   -311.00327            0   -6.8485701            0            0            0            0            0            0 
10012000    506.92252     69321.69    442.99331   -341.56225    674.76472    333.20247    845.69391   -341.56225            0   -7.5544832            0            0            0            0            0            0 
10013000    544.40982    68744.904    456.74689   -342.85654     695.7141    352.85756    898.66864   -342.85654            0   -7.6178672            0            0            0            0            0            0 
10014000    483.61958    69156.258     426.9623   -344.77852    650.34639    305.56787    793.33356   -344.77852            0   -7.5725547            0            0            0            0            0            0 
10015000     493.7507    68612.443    426.54763     -345.895    649.71477    303.81977    797.88751     -345.895            0   -7.6325739            0            0            0            0            0            0 
10016000    483.43305    69556.704    414.40123    -338.5878    631.21344    292.62564     783.0265    -338.5878            0   -7.5289586            0            0            0            0            0            0 
10017000    528.28223    69206.967    408.85187   -331.08462    622.76069    291.67607      824.878   -331.08462            0   -7.5670061            0            0            0            0            0            0 
10018000    437.83605    72103.962    411.55302   -333.07063    626.87506    293.80444    754.21633   -333.07063            0   -7.2629788            0            0            0            0            0            0 
10019000    390.79361    70574.045    439.74523   -349.75196    669.81727     320.0653    722.28965   -349.75196            0   -7.4204269            0            0            0            0            0            0 
10020000    456.50436    70766.004    438.12345   -333.59801    667.34698    333.74897     804.8841   -333.59801            0   -7.4002983            0            0            0            0            0            0 
10021000    498.05643    71582.206    384.63375   -312.47209    585.87179    273.39971    793.34724   -312.47209            0   -7.3159179            0            0            0            0            0            0 
10022000    496.05486    71285.048     401.2071    -330.3047    611.11622    280.81152    796.51973    -330.3047            0    -7.346415            0            0            0            0            0            0 
10023000    496.43114    70254.631    432.96094   -341.64408    659.48348     317.8394    826.47864   -341.64408            0   -7.4541641            0            0            0            0            0            0 
10024000    451.67915    65892.911    408.94531   -366.98328    622.90302    255.91974     689.9746   -366.98328            0   -7.9475856            0            0            0            0            0            0 
10025000    503.33449    71408.414    405.27558   -319.24418    617.31331    298.06913    822.25096   -319.24418            0   -7.3337232            0            0            0            0            0            0 
10026000    508.29187    73878.064    434.29055   -315.82923    661.50874    345.67951    893.33136   -315.82923            0   -7.0885662            0            0            0            0            0            0 
10027000    464.71766    68518.206    424.51503   -360.99761    646.61872    285.62111    749.99848   -360.99761            0   -7.6430714            0            0            0            0            0            0 
10028000    438.84391    74614.969    411.21875    -314.9175     626.3659     311.4484    788.99079    -314.9175            0   -7.0185588            0            0            0            0            0            0 
10029000    480.72397    66787.511      440.911   -364.23055    671.59297    307.36242    775.60071   -364.23055            0   -7.8411298            0            0            0            0            0            0 
10030000    465.14721    71694.487     422.9023   -334.85419    644.16223    309.30804    795.66156   -334.85419            0   -7.3044605            0            0            0            0            0            0 
10031000    519.23452    70483.428    410.28376   -331.90128    624.94173    293.04045    826.77641   -331.90128            0   -7.4299671            0            0            0            0            0            0 
10032000    479.68925    70117.172     415.0884   -340.00955    632.26013    292.25058    782.77458   -340.00955            0   -7.4687773            0            0            0            0            0            0 
10033000    480.07426    72450.777    442.77235   -321.60193    674.42815    352.82623    860.08242   -321.60193            0   -7.2282116            0            0            0            0            0            0 
10034000    549.03883    69372.216    415.39229   -332.66974    632.72301    300.05327    855.52828   -332.66974            0    -7.548981            0            0            0            0            0            0 
10035000    506.15382    63519.716    391.70282   -375.01879    596.63936    221.62057    690.50624   -375.01879            0   -8.2445196            0            0            0            0            0            0 
10036000    521.16622    72182.979    431.07394   -314.30981     656.6092    342.29939    890.93873   -314.30981            0   -7.2550282            0            0            0            0            0            0 
10037000    439.04242     69540.39    429.63666   -355.31813    654.41996    299.10183    744.36779   -355.31813            0   -7.5307249            0            0            0            0            0            0 
10038000    527.79785    73856.686    409.99198   -302.99231     624.4973    321.50499    890.00872   -302.99231            0    -7.090618            0            0            0            0            0            0 
10039000    525.30881    69208.178    429.94139   -329.35971    654.88411    325.52441     855.7345   -329.35971            0   -7.5668737            0            0            0            0            0            0 
10040000     526.7264    67697.248     423.0606   -344.80229    644.40334    299.60104    819.63534   -344.80229            0   -7.7357583            0            0            0            0            0            0 
10041000    502.12401    73059.102    420.91187   -323.59201    641.13041     317.5384    852.54755   -323.59201            0    -7.168026            0            0            0            0            0            0 
10042000    484.45321    68752.562    404.72733    -346.6997    616.47821    269.77851    755.53276    -346.6997            0   -7.6170187            0            0            0            0            0            0 
10043000    515.26596    67930.195    416.54278   -352.06269    634.47544    282.41276    792.88274   -352.06269            0   -7.7092307            0            0            0            0            0            0 
10044000    527.13515    69833.729    444.22964   -344.47435     676.6479    332.17355    869.03609   -344.47435            0   -7.4990918            0            0            0            0            0            0 
10045000    442.93424     70665.16    409.24505   -336.43408    623.35958    286.92549    743.40416   -336.43408            0   -7.4108591            0            0            0            0            0            0 
10046000    648.17249    66273.949    426.50852   -338.64684     649.6552    311.00836    937.49143   -338.64684            0   -7.9018913            0            0            0            0            0            0 
10047000    415.21196    70306.693    405.09467   -341.72698    617.03775    275.31076    701.04876   -341.72698            0   -7.4486442            0            0            0            0            0            0 
10048000    481.26281    68975.495     404.4195    -344.4026    616.00934    271.60673    755.72672    -344.4026            0      -7.5924            0            0            0            0            0            0 
10049000    482.90433    67038.581    432.83266   -364.59137    659.28809    294.69672    766.82693   -364.59137            0   -7.8117636            0            0            0            0            0            0 
10050000    401.92505    70852.846    424.46894   -346.05395    646.54852    300.49456    715.81018   -346.05395            0   -7.3912281            0            0            0            0            0            0 
10051000    404.45918    72519.032    403.98086   -332.70474    615.34119    282.63645    710.39882   -332.70474            0   -7.2214084            0            0            0            0            0            0 
10052000    423.36614    69679.131    426.81647   -350.79024    650.12426    299.33403    729.55813   -350.79024            0   -7.5157301            0            0            0            0            0            0 
10053000    492.48761     67121.96     415.7213   -358.74127    633.22417     274.4829    756.58146   -358.74127            0   -7.8020598            0            0            0            0            0            0 
10054000    481.84123    71615.416    391.69105   -316.34706    596.62143    280.27437    783.52737   -316.34706            0   -7.3125253            0            0            0            0            0            0 
10055000    575.85377    72070.012     428.9878   -320.72115    653.43162    332.71047    937.97149   -320.72115            0   -7.2664001            0            0            0            0            0            0 
10056000    483.68572    72026.148    454.98118    -332.4452    693.02457    360.57938    868.65615    -332.4452            0   -7.2708254            0            0            0            0            0            0 
10057000    447.20118    70425.487    403.57274   -341.46843    614.71956    273.25112    732.56407   -341.46843            0   -7.4360799            0            0            0            0            0            0 
10058000    581.51873    71425.021     424.5527   -316.95567    646.67609    329.72042    935.46561   -316.95567            0   -7.3320181            0            0            0            0            0            0 
10059000    469.75964     72059.44     421.3614   -327.06384    641.81513    314.75129    808.42782   -327.06384            0   -7.2674662            0            0            0            0            0            0 
10060000    464.37445    70419.526    405.43024   -337.09108    617.54888     280.4578    757.36876   -337.09108            0   -7.4367093            0            0            0            0            0            0 
10061000    512.48138    71617.474    427.17822   -323.09242    650.67527    327.58285    862.85295   -323.09242            0   -7.3123152            0            0            0            0            0            0 
10062000    593.49083    66998.086    423.68745   -343.85105    645.35815     301.5071    881.40602   -343.85105            0   -7.8164852            0            0            0            0            0            0 
10063000    496.47462     72306.74    400.28268    -320.9738    609.70816    288.73436    812.27659    -320.9738            0   -7.2426104            0            0            0            0            0            0 
10064000     559.4355    72374.943     413.5606   -311.38053      629.933    318.55247    909.04464   -311.38053            0   -7.2357853            0            0            0            0            0            0 
10065000     475.8441     69058.67    402.84381   -343.17085    613.60925     270.4384    749.68472   -343.17085            0   -7.5832556            0            0            0            0            0            0 
10066000    487.29872    73855.591    432.25058   -313.07308    658.40146    345.32838    870.20174   -313.07308            0   -7.0907231            0            0            0            0            0            0 
10067000     526.5401    72588.587    404.14778   -311.96563    615.59545    303.62982    861.04101   -311.96563            0   -7.2144887            0            0            0            0            0            0 
10068000    417.59857    68745.942    409.26302     -352.377    623.38694    271.00994    689.68969     -352.377            0   -7.6177521            0            0            0            0            0            0 
10069000    551.02977    71290.128    437.42312   -320.80226    666.28024    345.47799       918.38   -320.80226            0   -7.3458915            0            0            0            0            0            0 
10070000    389.87536    73493.598    417.95388   -332.95487    636.62481    303.66995    721.54956   -332.95487            0   -7.1256485            0            0            0            0            0            0 
10071000    473.13041    74023.506      435.126   -315.31417    662.78129    347.46712    858.23832   -315.31417            0   -7.0746385            0            0            0            0            0            0 
10072000     450.1928    67427.505    400.27725   -364.98402    609.69988    244.71587     687.4179   -364.98402            0   -7.7667051            0            0            0            0            0            0 
10073000    519.84131    68073.287    404.12356   -342.76417    615.55856    272.79439    788.88196   -342.76417            0   -7.6930257            0            0            0            0            0            0 
10074000    530.95651    71393.327    448.40174   -323.92281    683.00281       359.08     911.9111   -323.92281            0    -7.335273            0            0            0            0            0            0 
10075000    492.99949    68871.243    437.70865   -345.02477    666.71517     321.6904    816.86719   -345.02477            0   -7.6038927            0            0            0            0            0            0 
10076000    415.03634    74149.501    418.13727   -321.15455    636.90415     315.7496    764.56759   -321.15455            0   -7.0626172            0            0            0            0            0            0 
10077000    472.47276     74185.08    379.17256   -310.06922    577.55335    267.48413    778.65869   -310.06922            0     -7.05923            0            0            0            0            0            0 
10078000     501.4698    70946.842    427.23565   -335.64559    650.76276    315.11717    833.98141   -335.64559            0   -7.3814356            0            0            0            0            0            0 
10079000    542.55549    69590.473    442.60285   -336.91555    674.16998    337.25443    887.89707   -336.91555            0   -7.5253051            0            0            0            0            0            0 
10080000      429.775    68504.299    409.92274   -356.47516    624.39183    267.91667    697.28981   -356.47516            0    -7.644623            0            0            0            0            0            0 
10081000    479.79344     70862.43    432.73848   -339.82242    659.14463    319.32221    815.16754   -339.82242            0   -7.3902285            0            0            0            0            0            0 
10082000    415.84613    70935.107    398.52741   -338.18177    607.03454    268.85276    699.05214   -338.18177            0   -7.3826568            0            0            0            0            0            0 
10083000     438.0461    70676.632    400.86099   -340.97046    610.58903    269.61856     721.1329   -340.97046            0   -7.4096563            0            0            0            0            0            0 
10084000    474.29108    70110.994    424.77785   -337.32621    647.01904    309.69282      794.654   -337.32621            0   -7.4694354            0            0            0            0            0            0 
10085000    416.62826    73074.263    424.16376   -327.05027    646.08367    319.03339    763.03962   -327.05027            0   -7.1665388            0            0            0            0            0            0 
10086000    471.60327    66868.433    425.79189   -359.27582    648.56362     289.2878    749.19885   -359.27582            0   -7.8316408            0            0            0            0            0            0 
10087000    501.35789    72521.658    411.06316   -322.13666    626.12891    303.99225    834.25542   -322.13666            0   -7.2211469            0            0            0            0            0            0 
10088000    503.45669    74388.076    409.51051   -308.15144    623.76393     315.6125    861.79946   -308.15144            0   -7.0399662            0            0            0            0            0            0 
10089000    490.39992    67837.367    433.41425   -349.84281    660.17396    310.33115    795.50264   -349.84281            0   -7.7197799            0            0            0            0            0            0 
10090000     506.8845     67093.87    432.17931   -356.87171    658.29291     301.4212    797.40528   -356.87171            0   -7.8053263            0            0            0            0            0            0 
10091000    456.93975    72684.463    426.29134    -334.8205    649.32439    314.50389    798.87298    -334.8205            0   -7.2049723            0            0            0            0            0            0 
10092000    466.07902    70990.389    390.49326   -333.01855    594.79697    261.77841    744.32028   -333.01855            0   -7.3769076            0            0            0            0            0            0 
10093000    541.49162     68146.49    422.25543   -339.04638    643.17692    304.13054    842.29017   -339.04638            0   -7.6847618            0            0            0            0            0            0 
10094000    488.36492    72437.259     416.5347   -325.85306    634.46313    308.61007    824.53006   -325.85306            0   -7.2295605            0            0            0            0            0            0 
10095000    444.74682    69575.613    417.48145   -349.68191    635.90522    286.22331    737.50299   -349.68191            0   -7.5269125            0            0            0            0            0            0 
10096000    503.99774    67416.265    430.76982    -360.0825    656.14598    296.06348    791.59259    -360.0825            0   -7.7679999            0            0            0            0            0            0 
10097000    468.37819    71718.882    421.25708    -331.3966    641.65622    310.25962    800.15807    -331.3966            0   -7.3019758            0            0            0            0            0            0 
10098000    508.31518    70118.081     405.8077   -336.97872    618.12383    281.14511    800.94836   -336.97872            0   -7.4686805            0            0            0            0            0            0 
10099000    514.62089    67450.367    418.26054   -349.29056    637.09192    287.80136    794.03106   -349.29056            0   -7.7640726            0            0            0            0            0            0 
10100000     432.7625    71971.715    407.78365   -334.64254    621.13358    286.49104    740.73312   -334.64254            0   -7.2763244            0            0            0            0            0            0 
10101000    456.80482    72923.204    412.22681   -324.86408    627.90138     303.0373    788.85386   -324.86408            0   -7.1813842            0            0            0            0            0            0 
10102000    479.80333    70618.001    404.77544   -328.43013    616.55149    288.12136    782.26655   -328.43013            0   -7.4158081            0            0            0            0            0            0 
10103000    514.52359     69284.08    410.76636   -332.23208    625.67682    293.44475    813.33854   -332.23208            0   -7.5585841            0            0            0            0            0            0 
10104000    402.47796     71047.09    410.77416   -338.83507    625.68871    286.85363    703.88075   -338.83507            0   -7.3710203            0            0            0            0            0            0 
10105000    571.54183    67364.278    414.39252     -337.258    631.20018    293.94218     855.4471     -337.258            0   -7.7739948            0            0            0            0            0            0 
10106000    450.39245    74569.445    430.52439   -308.26222    655.77213    347.50992     837.3202   -308.26222            0   -7.0228435            0            0            0            0            0            0 
10107000    527.76619     70961.83    441.54881   -322.33638    672.56447     350.2281    896.41623   -322.33638            0   -7.3798766            0            0            0            0            0            0 
10108000    552.67839    68703.491    428.54796   -338.50146    652.76165    314.26019    868.02732   -338.50146            0   -7.6224591            0            0            0            0            0            0 
10109000    514.60871      69116.9    424.34206   -339.67272    646.35525    306.68253    825.40765   -339.67272            0   -7.5768668            0            0            0            0            0            0 
10110000    480.43763    74014.444     416.3727   -315.47401    634.21638    318.74237    837.33864   -315.47401            0   -7.0755047            0            0            0            0            0            0 
10111000    475.98354    72704.611    437.81476   -327.56595    666.87678    339.31083    844.00673   -327.56595            0   -7.2029757            0            0            0            0            0            0 
10112000    579.98836    67306.318    402.16495   -341.33281    612.57521    271.24241    840.55527   -341.33281            0   -7.7806892            0            0            0            0            0            0 
10113000    458.04805    72858.974    415.71176   -319.00935    633.20963    314.20028    800.90995   -319.00935            0   -7.1877151            0            0            0            0            0            0 
10114000    499.91771     68114.62     429.9776   -347.71407    654.93927     307.2252    803.83438   -347.71407            0   -7.6883575            0            0            0            0            0            0 
10115000    532.91464    69853.715    419.66215   -335.56052    639.22683    303.66632    846.57033   -335.56052            0   -7.4969462            0            0            0            0            0            0 
10116000    434.86204    71650.297     395.7298   -333.43508    602.77323    269.33815    723.74554   -333.43508            0   -7.3089655            0            0            0            0            0            0 
10117000    518.75534    68026.603    390.98279   -342.30811    595.54261     253.2345    767.89074   -342.30811            0   -7.6983051            0            0            0            0            0            0 
10118000     447.7757     71718.11    386.60991    -320.7026    588.88187    268.17927    736.52358    -320.7026            0   -7.3020545            0            0            0            0            0            0 
10119000    514.97275    69158.781    422.94562   -340.16271     644.2282     304.0655     823.4721   -340.16271            0   -7.5722785            0            0            0            0            0            0 
10120000    446.53303    74522.888     396.5446   -315.74374    604.01433    288.27059     773.5805   -315.74374            0    -7.027231            0            0            0            0            0            0 
10121000    562.03996    66671.954    419.29081   -352.58735    638.66121    286.07386    832.56895   -352.58735            0   -7.8547202            0            0            0            0            0            0 
10122000    414.46198     72136.62    381.29454   -330.10647    580.78553    250.67907    686.70907   -330.10647            0   -7.2596907            0            0            0            0            0            0 
10123000     496.3624    68871.988    430.80576   -341.01066    656.20072    315.19006    813.75001   -341.01066            0   -7.6038105            0            0            0            0            0            0 
10124000    525.31331    72390.891    402.87741   -309.99463    613.66043    303.66581     858.2637   -309.99463            0   -7.2341912            0            0            0            0            0            0 
10125000    588.35833    66592.834    422.68215   -356.24426    643.82689    287.58263    858.98928   -356.24426            0   -7.8640525            0            0            0            0            0            0 
10126000    544.56577    68899.536    421.91328   -335.49861    642.65576    307.15715    854.35266   -335.49861            0   -7.6007703            0            0            0            0            0            0 
10127000    472.45233     70434.54    415.89246   -336.29254    633.48487    297.19233     782.5027   -336.29254            0   -7.4351241            0            0            0            0            0            0 
10128000    494.86466    67975.983    394.14159   -341.10137    600.35407     259.2527    749.84173   -341.10137            0   -7.7040378            0            0            0            0            0            0 
10129000    450.15406    69901.537    430.94004   -341.05766    656.40526     315.3476    774.25365   -341.05766            0   -7.4918173            0            0            0            0            0            0 
10130000    417.95633    73582.831    403.01681   -333.05103    613.87276    280.82174    729.34327   -333.05103            0   -7.1170073            0            0            0            0            0            0 
10131000    478.56039    72781.358    431.06018   -330.72416    656.58825    325.86409    833.82792   -330.72416            0   -7.1953803            0            0            0            0            0            0 
10132000    515.06963    67123.612    396.15565   -348.09894    603.42188    255.32294    759.53955   -348.09894            0   -7.8018678            0            0            0            0            0            0 
10133000    482.00369    74396.427    432.03294   -315.11846    658.06996     342.9515    865.92338   -315.11846            0    -7.039176            0            0            0            0            0            0 
10134000    503.43537    70363.473    431.26061   -334.75342    656.89355    322.14013    838.75497   -334.75342            0   -7.4426336            0            0            0            0            0            0 
10135000    493.54095    69813.691    412.23155   -343.32804     627.9086    284.58056    787.08475   -343.32804            0   -7.5012442            0            0            0            0            0            0 
10136000    436.55574    74069.922    422.65519   -315.36765    643.78582    328.41817    800.00045   -315.36765            0   -7.0702052            0            0            0            0            0            0 
10137000     545.0988    69395.959    403.40452   -333.91055    614.46332    280.55277     832.2303   -333.91055            0   -7.5463983            0            0            0            0            0            0 
10138000    467.15373    73369.929    411.20637   -318.99973    626.34705    307.34733    807.21357   -318.99973            0   -7.1376591            0            0            0            0            0            0 
10139000    434.14048    72765.815    411.50241   -325.81889    626.79798    300.97909    761.69538   -325.81889            0   -7.1969172            0            0            0            0            0            0 
10140000    561.99444    67213.634    433.19203    -348.7923    659.83548    311.04317    861.93368    -348.7923            0   -7.7914184            0            0            0            0            0            0 
10141000    417.46598    71210.841    421.02072   -342.26581    641.29621    299.03039    732.58429   -342.26581            0   -7.3540705            0            0            0            0            0            0 
10142000    473.04507    71786.624    418.49155   -331.84436     637.4438    305.59944    800.84653   -331.84436            0   -7.2950853            0            0            0            0            0            0 
10143000    511.63002    72900.141    425.43277    -320.3592    648.01661    327.65741    871.60902    -320.3592            0   -7.1836562            0            0            0            0            0            0 
10144000    590.83854    68133.029    418.99382   -334.58668    638.20884    303.62216    890.70908   -334.58668            0   -7.6862801            0            0            0            0            0            0 
10145000    479.39953    74077.534     404.0681   -317.38612    615.47408    298.08796    816.00477   -317.38612            0   -7.0694787            0            0            0            0            0            0 
10146000    558.88906    69028.616    418.18507   -333.58656    636.97697    303.39041    866.03048   -333.58656            0   -7.5865572            0            0            0            0            0            0 
10147000    532.32672     70180.48    420.39144    -316.8725    640.33769     323.4652    868.30709    -316.8725            0     -7.46204            0            0            0            0            0            0 
10148000    474.85826    70486.793    439.98831   -339.16498    670.18752    331.02255    819.16619   -339.16498            0   -7.4296123            0            0            0            0            0            0 
10149000    540.19585    72048.322     399.3966   -318.27671    608.35849    290.08178    857.69303   -318.27671            0   -7.2685877            0            0            0            0            0            0 
10150000    478.35728    69616.583     411.3112   -348.75897    626.50672    277.74776    763.41742   -348.75897            0   -7.5224828            0            0            0            0            0            0 
10151000    369.63446    72902.034    410.36719   -339.80111    625.06882    285.26771    678.26358   -339.80111            0   -7.1834696            0            0            0            0            0            0 
10152000    466.47448    70462.424    411.21513   -333.53363     626.3604    292.82677    772.18628   -333.53363            0   -7.4321818            0            0            0            0            0            0 
10153000    461.26928    74570.446    418.44453    -318.9325    637.37217    318.43967    820.08544    -318.9325            0   -7.0227493            0            0            0            0            0            0 
10154000    470.08151    69328.109    452.15125   -352.10843    688.71404    336.60562    811.89533   -352.10843            0   -7.5537838            0            0            0            0            0            0 
10155000    466.79523    74475.973    416.34115   -324.49163    634.16832    309.67668    816.68898   -324.49163            0   -7.0316576            0            0            0            0            0            0 
10156000    459.43229    73493.105     427.7843   -327.78719    651.59845    323.81126     816.2407   -327.78719            0   -7.1256962            0            0            0            0            0            0 
10157000    539.12707    68953.501    422.26515   -335.53947    643.19172    307.65224     849.8071   -335.53947            0   -7.5948217            0            0            0            0            0            0 
10158000    465.81166    70662.928    406.24511   -341.39056     618.7901    277.39953    757.44003   -341.39056            0   -7.4110932            0            0            0            0            0            0 
10159000    445.93424    69417.385     444.2283   -347.82361    676.64585    328.82224    780.27775   -347.82361            0   -7.5440691            0            0            0            0            0            0 
10160000    711.27687    66060.663    427.96797   -331.51837    651.87822    320.35985    1005.6232   -331.51837            0   -7.9274038            0            0            0            0            0            0 
10161000    520.65499     70584.06    423.50581   -341.67399    645.08148    303.40749    839.36771   -341.67399            0   -7.4193741            0            0            0            0            0            0 
10162000    553.36569    71982.962    427.53797   -307.93634    651.22324     343.2869    924.20891   -307.93634            0   -7.2751875            0            0            0            0            0            0 
10163000    525.80014    71399.967    428.86537   -320.01032    653.24513    333.23481    880.74801   -320.01032            0   -7.3345909            0            0            0            0            0            0 
10164000    483.37941     73582.29    429.68505   -321.14155    654.49366    333.35211     852.0773   -321.14155            0   -7.1170596            0            0            0            0            0            0 
10165000    480.52344    67832.855    414.56922   -350.18912    631.46932     281.2802    756.64888   -350.18912            0   -7.7202934            0            0            0            0            0            0 
10166000    470.34375     66219.35    420.67082   -370.75522    640.76324    270.00802    724.23841   -370.75522            0   -7.9084066            0            0            0            0            0            0 
10167000    408.17083     72783.03    450.38748   -336.92694    686.02748    349.10054    782.35993   -336.92694            0    -7.195215            0            0            0            0            0            0 
10168000    481.20444    70129.323     417.2626   -338.08377    635.57187     297.4881    789.64679   -338.08377            0   -7.4674832            0            0            0            0            0            0 
10169000     454.8941     65458.76    409.97003   -373.09436    624.46387    251.36951    685.63365   -373.09436            0   -8.0002974            0            0            0            0            0            0 
10170000    498.57186     72509.26    433.29253   -323.19458    659.98855    336.79396    864.02033   -323.19458            0   -7.2223816            0            0            0            0            0            0 
10171000    477.88358    72294.691    428.19502   -323.82998    652.22406    328.39408    832.24772   -323.82998            0   -7.2438174            0            0            0            0            0            0 
10172000     523.0693    71084.261     394.8003   -323.37363    601.35742    277.98379    820.24504   -323.37363            0   -7.3671659            0            0            0            0            0            0 
10173000    534.99151    69586.174    399.97961   -326.93659    609.24652    282.30993    825.24231   -326.93659            0     -7.52577            0            0            0            0            0            0 
10174000    413.90244    77236.134    401.75295   -305.98374    611.94766    305.96392    772.18767   -305.98374            0   -6.7803697            0            0            0            0            0            0 
10175000    452.56099    70964.223    410.58842   -342.94352     625.4058    282.46228    750.83593   -342.94352            0   -7.3796277            0            0            0            0            0            0 
10176000    405.39102    71067.126    423.38621   -345.30436     644.8993    299.59494    719.75887   -345.30436            0   -7.3689423            0            0            0            0            0            0 
10177000    512.97137     72348.13    462.10147   -321.85472    703.87016    382.01544    923.26347   -321.85472            0   -7.2384669            0            0            0            0            0            0 
10178000    521.60341    67963.668    408.73834   -351.42458    622.58776    271.16319    788.16625   -351.42458            0   -7.7054338            0            0            0            0            0            0 
10179000    555.56746    68188.519    395.00497   -338.95796    601.66917    262.71121    815.20061   -338.95796            0   -7.6800252            0            0            0            0            0            0 
10180000    448.84455    70820.127    431.85372   -344.25984    657.79697    313.53713    777.12124   -344.25984            0   -7.3946429            0            0            0            0            0            0 
10181000    419.06048    70966.446    436.26788   -344.26727     664.5206    320.25333    753.96954   -344.26727            0   -7.3793965            0            0            0            0            0            0 
10182000    554.22682    70060.506    431.55032   -329.99148    657.33483    327.34335    893.63049   -329.99148            0   -7.4748182            0            0            0            0            0            0 
10183000    427.41616    70695.453    446.76234   -344.85231    680.50569    335.65338    776.32828   -344.85231            0   -7.4076835            0            0            0            0            0            0 
10184000    663.69016    67194.822    417.64593   -329.59908    636.15575    306.55667    956.95149   -329.59908            0   -7.7935998            0            0            0            0            0            0 
10185000    425.64697    72664.809     428.0936    -330.3101    652.06958    321.75948    772.83533    -330.3101            0   -7.2069211            0            0            0            0            0            0 
10186000    554.64934    70381.024    459.34893   -335.24136    699.67751    364.43615    933.74768   -335.24136            0   -7.4407775            0            0            0            0            0            0 
10187000    538.41823    70617.353    447.87715   -337.75284    682.20375    344.45091    898.95797   -337.75284            0   -7.4158762            0            0            0            0            0            0 
10188000    453.17138    69521.827    422.08396   -341.48475    642.91572    301.43098     760.9035   -341.48475            0   -7.5327357            0            0            0            0            0            0 
10189000    438.40256    72682.417    437.88167   -326.85945    666.97871    340.11925     804.8253   -326.85945            0   -7.2051752            0            0            0            0            0            0 
10190000    517.71708      70010.1    400.52805   -332.71114     610.0819    277.37077     805.9731   -332.71114            0   -7.4801999            0            0            0            0            0            0 
10191000    447.89326    73989.139    396.14798   -311.78629     603.4102    291.62392    774.92569   -311.78629            0   -7.0779245            0            0            0            0            0            0 
10192000    531.54318    70012.416    420.80843   -327.00102    640.97285    313.97183    856.70893   -327.00102            0   -7.4799524            0            0            0            0            0            0 
10193000    586.67287    67257.517     430.6871   -336.77582    656.01998    319.24416    894.70095   -336.77582            0   -7.7863348            0            0            0            0            0            0 
10194000    462.74692    72941.432     424.6186   -322.85303    646.77648    323.92345     816.1825   -322.85303            0   -7.1795896            0            0            0            0            0            0 
10195000     474.1263    72834.354     444.4671   -315.72821    677.00959    361.28138    864.90514   -315.72821            0   -7.1901447            0            0            0            0            0            0 
10196000    490.92464    68688.447    415.55885   -340.34799    632.97672    292.62873    784.41276   -340.34799            0   -7.6241285            0            0            0            0            0            0 
10197000     517.6262    72215.483    413.60524   -317.31365      630.001    312.68735    857.84544   -317.31365            0   -7.2517627            0            0            0            0            0            0 
10198000    491.61691    70177.198     410.9854   -330.35741    626.01047    295.65306    798.80451   -330.35741            0   -7.4623889            0            0            0            0            0            0 
10199000    515.48305    64798.417    431.43854   -366.61188    657.16457    290.55269    777.69368   -366.61188            0   -8.0818262            0            0            0            0            0            0 
10200000    506.63685    73152.361    404.65571   -317.17865    616.36912    299.19047    839.69708   -317.17865            0   -7.1588879            0            0            0            0            0            0 
10201000    477.27883    69748.597    423.93257   -339.84016    645.73152    305.89136    791.38499   -339.84016            0   -7.5082449            0            0            0            0            0            0 
10202000    470.63784    70107.176    436.94107   -347.65846    665.54599    317.88753    799.08707   -347.65846            0   -7.4698423            0            0            0            0            0            0 
10203000    489.26458    72387.688    415.43627   -324.04075       632.79    308.74925    825.26595   -324.04075            0   -7.2345112            0            0            0            0            0            0 
10204000    580.60511    68139.169    437.27413   -338.32591     666.0533     327.7274    904.69786   -338.32591            0   -7.6855875            0            0            0            0            0            0 
10205000    466.47719    75262.044    423.72548   -313.04109    645.41609      332.375    844.38956   -313.04109            0   -6.9582158            0            0            0            0            0            0 
10206000    576.89439    68908.961    419.79418   -329.52131    639.42794    309.90663    889.66617   -329.52131            0   -7.5997307            0            0            0            0            0            0 
10207000     487.2914     70382.87    413.03493   -330.63733    629.13231    298.49498    798.68107   -330.63733            0   -7.4405824            0            0            0            0            0            0 
10208000    556.65793    68669.393    416.37069   -333.11234    634.21331    301.10096    858.57866   -333.11234            0    -7.626244            0            0            0            0            0            0 
10209000    462.04859    71403.604    423.92488   -329.68804    645.71981    316.03177    797.18529   -329.68804            0   -7.3342173            0            0            0            0            0            0 
10210000    453.30988    74104.675    427.97853   -310.23802     651.8943    341.65627     831.5667   -310.23802            0   -7.0668894            0            0            0            0            0            0 
10211000    510.56513    74203.496    399.94972   -306.25994    609.20099    302.94106    855.46539   -306.25994            0   -7.0574781            0            0            0            0            0            0 
10212000    415.34577    70145.477     417.2439    -345.0675    635.54338    290.47587    715.37453    -345.0675            0   -7.4657636            0            0            0            0            0            0 
10213000    448.68517     70149.55    449.17477   -347.48587    684.18028    336.69441    795.72591   -347.48587            0   -7.4653301            0            0            0            0            0            0 
10214000    430.36826    70765.575    405.24141   -337.91645    617.26126    279.34481     723.5035   -337.91645            0   -7.4003432            0            0            0            0            0            0 
10215000    380.66589    72511.949    416.34478   -337.36886    634.17384    296.80498    699.36388   -337.36886            0   -7.2221138            0            0            0            0            0            0 
10216000    471.29123    65154.064    434.65748   -372.62151    662.06764    289.44613     737.2695   -372.62151            0   -8.0377111            0            0            0            0            0            0 
10217000    491.11346    69366.717    421.55945   -344.48525     642.1168    297.63156    794.46276   -344.48525            0   -7.5495795            0            0            0            0            0            0 
10218000    513.26696    69111.185    418.03955   -343.58077    636.75531    293.17455     810.5044   -343.58077            0   -7.5774933            0            0            0            0            0            0 
10219000    493.02382    70552.947    412.20711   -333.05629    627.87137    294.81508    802.10818   -333.05629            0   -7.4226459            0            0            0            0            0            0 
10220000     485.4369    74064.519     400.4335   -315.10735    609.93787    294.83052    819.17763   -315.10735            0    -7.070721            0            0            0            0            0            0 
10221000    507.32803    70380.057    412.38258   -321.88163    628.13865    306.25702    826.98913   -321.88163            0   -7.4408798            0            0            0            0            0            0 
10222000    495.84741    68296.692    420.96435   -345.60303    641.21035    295.60732    789.48978   -345.60303            0   -7.6678611            0            0            0            0            0            0 
10223000    520.01937    71528.668    437.51503   -333.23321    666.42025    333.18704    875.65682   -333.23321            0   -7.3213938            0            0            0            0            0            0 
10224000    555.96282     71808.24    430.53326   -308.71588    655.78565    347.06978    929.30158   -308.71588            0   -7.2928893            0            0            0            0            0            0 
10225000    563.68331    66736.262    413.58619   -345.05297    629.97197      284.919    833.54065   -345.05297            0   -7.8471513            0            0            0            0            0            0 
10226000    462.34693    72538.992    416.65081   -324.41675    634.63998    310.22323    799.34319   -324.41675            0   -7.2194213            0            0            0            0            0            0 
10227000    482.21398    72249.617    440.71241   -328.00993    671.29048    343.28055    851.38293   -328.00993            0   -7.2483366            0            0            0            0            0            0 
10228000    538.85753    70396.381    421.23066   -331.64031    641.61599    309.97568    863.19862   -331.64031            0   -7.4391544            0            0            0            0            0            0 
10229000    418.26941    73843.344    423.34292   -327.49472    644.83336    317.33865    767.78528   -327.49472            0   -7.0918991            0            0            0            0            0            0 
10230000    465.57673    66423.474    415.48466   -364.92232    632.86372     267.9414    718.95407   -364.92232            0   -7.8841035            0            0            0            0            0            0 
10231000    407.96524    71538.239    413.57939    -340.0764    629.96163    289.88523    715.52019    -340.0764            0   -7.3204143            0            0            0            0            0            0 
10232000    529.88154    69638.647    434.71723   -335.93801    662.15865    326.22064     864.3727   -335.93801            0   -7.5200993            0            0            0            0            0            0 
10233000     402.6352    71997.573    413.98475   -336.33782    630.57906    294.24124    717.01253   -336.33782            0   -7.2737111            0            0            0            0            0            0 
10234000    450.90501    71343.347    424.18929   -345.24587    646.12255    300.87668    770.02961   -345.24587            0   -7.3404118            0            0            0            0            0            0 
10235000    546.38237    70439.327    451.98899    -328.1646    688.46689    360.30229    921.59288    -328.1646            0   -7.4346188            0            0            0            0            0            0 
10236000    459.20106    72768.347    426.21059   -322.11601    649.20139    327.08538    814.41329   -322.11601            0   -7.1966668            0            0            0            0            0            0 
10237000    477.14281    67950.571    395.64569   -346.69699    602.64511    255.94812    728.79157   -346.69699            0    -7.706919            0            0            0            0            0            0 
10238000    513.71329    67603.205    421.05857   -351.30396    641.35387     290.0499    796.53186   -351.30396            0   -7.7465195            0            0            0            0            0            0 
10239000    539.12581    71802.544    410.62424   -323.51948    625.46035    301.94088    866.49534   -323.51948            0   -7.2934678            0            0            0            0            0            0 
10240000    526.09476    72450.336    424.57868   -316.03093    646.71568    330.68475    886.56375   -316.03093            0   -7.2282556            0            0            0            0            0            0 
10241000    535.32634    72003.458    433.66089   -319.24573    660.54963    341.30391    903.44826   -319.24573            0   -7.2731166            0            0            0            0            0            0 
10242000      526.904    69216.994    422.48829   -333.13118     643.5316    310.40042    842.28834   -333.13118            0   -7.5659099            0            0            0            0            0            0 
10243000    519.49733    70578.677    439.18721   -324.45763     668.9673    344.50967    879.23742   -324.45763            0   -7.4199399            0            0            0            0            0            0 
10244000    587.87521    72019.932    422.45228    -305.9849    643.47675    337.49185    954.95884    -305.9849            0   -7.2714529            0            0            0            0            0            0 
10245000    586.80011    67950.082    426.86567   -330.98807     650.1992    319.21113    900.71962   -330.98807            0   -7.7069745            0            0            0            0            0            0 
10246000    440.40742    71497.601    429.25002   -336.10542    653.83103    317.72562    776.94688   -336.10542            0    -7.324575            0            0            0            0            0            0 
10247000    465.77405    70518.734    418.56324   -336.71817    637.55299    300.83482    779.85707   -336.71817            0   -7.4262471            0            0            0            0            0            0 
10248000    463.96052    70830.574    413.30144   -335.58525    629.53825      293.953    773.22016   -335.58525            0   -7.3935522            0            0            0            0            0            0 
10249000    431.37109    75876.673    416.48786   -314.20086    634.39178    320.19092    797.53903   -314.20086            0   -6.9018517            0            0            0            0            0            0 
10250000    468.09917    68411.422    410.52692   -356.13839    625.31212    269.17373    736.20115   -356.13839            0   -7.6550016            0            0            0            0            0            0 
10251000    466.12742    71033.739    388.82188    -316.5089    592.25113    275.74223     758.6289    -316.5089            0   -7.3724058            0            0            0            0            0            0 
10252000    537.70269    69544.692    431.27748   -341.32178    656.91924    315.59746    860.95596   -341.32178            0   -7.5302591            0            0            0            0            0            0 
10253000    558.99281    69835.956    409.80657   -323.52976    624.21488    300.68512    870.01135   -323.52976            0   -7.4988526            0            0            0            0            0            0 
10254000    478.85154    71583.609    406.70753   -322.77265    619.49444    296.72179    796.63012   -322.77265            0   -7.3157745            0            0            0            0            0            0 
10255000     439.9158    74629.217    433.33988   -324.91326    660.06067    335.14741    813.94762   -324.91326            0   -7.0172188            0            0            0            0            0            0 
10256000    582.66596    69594.462     440.6314    -332.4064    671.16707    338.76068    930.14556    -332.4064            0   -7.5248738            0            0            0            0            0            0 
10257000    560.16038     70180.71    421.20507   -319.42593      641.577    322.15107    895.48288   -319.42593            0   -7.4620155            0            0            0            0            0            0 
10258000    600.70013    68086.676    434.20647   -329.41376    661.38067    331.96691    928.44672   -329.41376            0   -7.6915128            0            0            0            0            0            0 
10259000    444.00336    73421.538    437.71767   -331.25646     666.7289    335.47245    810.90139   -331.25646            0    -7.132642            0            0            0            0            0            0 
10260000    463.10093    70831.655    444.57387   -333.98336    677.17222    343.18885    821.57537   -333.98336            0   -7.3934394            0            0            0            0            0            0 
10261000    346.29428    73377.907    402.60134   -339.69807    613.23993    273.54186    644.12574   -339.69807            0   -7.1368831            0            0            0            0            0            0 
10262000    481.96606     70552.16    412.00982   -338.44741    627.57086    289.12345    785.03321   -338.44741            0   -7.4227287            0            0            0            0            0            0 
10263000    496.20501    69163.728    433.65684   -348.34405    660.54347    312.19942    812.71249   -348.34405            0   -7.5717368            0            0            0            0            0            0 
10264000    615.35533    72801.837     447.0751   -305.26106    680.98208    375.72102    1029.0685   -305.26106            0   -7.1933562            0            0            0            0            0            0 
10265000    478.01694    73834.993    428.53478   -315.64198    652.74158     337.0996     851.8319   -315.64198            0   -7.0927012            0            0            0            0            0            0 
10266000    497.04906    66666.303    428.03708   -364.34844    651.98348    287.63504    770.89579   -364.34844            0    -7.855386            0            0            0            0            0            0 
10267000    487.86451    69598.937     418.7773   -335.59334    637.87904    302.28571    797.48238   -335.59334            0     -7.52439            0            0            0            0            0            0 
10268000    510.44418    71163.881    422.43971   -338.85241     643.4576    304.60519    834.37081   -338.85241            0   -7.3589233            0            0            0            0            0            0 
10269000    456.32436    75910.938    423.53014   -312.75873    645.11854    332.35981    837.54882   -312.75873            0   -6.8987364            0            0            0            0            0            0 
10270000    514.89373    68581.463    405.14352   -339.68558    617.11215    277.42657    792.41828   -339.68558            0   -7.6360218            0            0            0            0            0            0 
10271000    446.15204    72828.164    438.00278   -330.67977    667.16319    336.48342    810.35224   -330.67977            0   -7.1907558            0            0            0            0            0            0 
10272000     530.0798    71400.658     421.5147   -316.37679    642.04864    325.67186    877.64679   -316.37679            0   -7.3345199            0            0            0            0            0            0 
10273000    438.05947    68743.312    414.93614   -350.17581    632.02821     281.8524    721.02922   -350.17581            0   -7.6180436            0            0            0            0            0            0 
10274000    407.29673    72168.264    396.71388   -335.67674    604.27217    268.59543    697.27528   -335.67674            0   -7.2565074            0            0            0            0            0            0 
10275000    467.04855    71979.914    431.62299    -338.9283    657.44552    318.51722    808.80293    -338.9283            0   -7.2754956            0            0            0            0            0            0 
10276000    590.42271    66800.285    449.69588   -346.95646    684.97404    338.01758    913.21543   -346.95646            0   -7.8396304            0            0            0            0            0            0 
10277000    478.70814    72638.972    417.06625   -320.92067    635.27278     314.3521    821.47871   -320.92067            0   -7.2094846            0            0            0            0            0            0 
10278000    384.17688    72420.266    422.89886   -336.41099    644.15698    307.74599    713.50412   -336.41099            0   -7.2312568            0            0            0            0            0            0 
10279000    506.98407    67502.203    407.64658   -347.49866     620.9248    273.42614     772.5268   -347.49866            0   -7.7581104            0            0            0            0            0            0 
10280000    605.50621     67316.84    424.26807   -334.09935    646.24255     312.1432    906.59715   -334.09935            0   -7.7794731            0            0            0            0            0            0 
10281000    460.49391    74590.034     444.2064   -322.11002     676.6125    354.50248    855.43657   -322.11002            0    -7.020905            0            0            0            0            0            0 
10282000    450.13913     72572.03    403.73536   -314.26646    614.96726     300.7008    777.12293   -314.26646            0   -7.2161347            0            0            0            0            0            0 
10283000    531.78738     67832.45    411.34638   -347.05859    626.56032    279.50173    805.58128   -347.05859            0   -7.7203396            0            0            0            0            0            0 
10284000    544.41305    68780.638    437.26889   -341.26923    666.04533     324.7761    870.87413   -341.26923            0   -7.6139094            0            0            0            0            0            0 
10285000    659.49962    68528.922    439.30516   -324.48853    669.14695    344.65842    1003.7782   -324.48853            0   -7.6418763            0            0            0            0            0            0 
10286000     482.6743    76629.996    409.46264   -300.76836    623.69101    322.92265    862.34491   -300.76836            0    -6.834002            0            0            0            0            0            0 
10287000    525.76809    70016.456     431.7398   -331.46344    657.62344       326.16    863.03136   -331.46344            0   -7.4795209            0            0            0            0            0            0 
10288000    607.79654    65374.082    415.96381   -356.31477    633.59356    277.27878    856.76048   -356.31477            0     -8.01066            0            0            0            0            0            0 
10289000    472.70951    70508.685    400.53298   -334.76467     610.0894    275.32474    761.41043   -334.76467            0   -7.4273055            0            0            0            0            0            0 
10290000    393.21696    72902.026    412.29341   -340.36891    628.00283    287.63392    705.70269   -340.36891            0   -7.1834704            0            0            0            0            0            0 
10291000    480.48723    70253.419    422.26268   -339.45383    643.18795    303.73411    796.02886   -339.45383            0   -7.4542927            0            0            0            0            0            0 
10292000    422.87626     72092.25    411.65481   -330.86786     627.0301    296.16224    740.77076   -330.86786            0   -7.2641587            0            0            0            0            0            0 
10293000     554.5824    68737.673    437.25972   -346.83318    666.03136    319.19819    875.14955   -346.83318            0   -7.6186685            0            0            0            0            0            0 
10294000    503.73566    72130.153    417.64145   -319.53977    636.14892    316.60915    846.51101   -319.53977            0   -7.2603416            0            0            0            0            0            0 
10295000    527.59398    67488.296    410.10393   -346.82923    624.66782    277.83859    797.12168   -346.82923            0   -7.7597091            0            0            0            0            0            0 
10296000    376.70309     73429.14    421.11629   -325.91623    641.44177    315.52555    718.93263   -325.91623            0   -7.1319036            0            0            0            0            0            0 
10297000    525.55428    70022.711    426.98401   -338.51416    650.37945    311.86529    848.56627   -338.51416            0   -7.4788528            0            0            0            0            0            0 
10298000    557.08549    69655.559    415.28497   -337.36878    632.55955    295.19077    861.10878   -337.36878            0   -7.5182736            0            0            0            0            0            0 
10299000    569.66501    72612.916    450.71243   -307.19668    686.52244    379.32576     982.5924   -307.19668            0   -7.2120715            0            0            0            0            0            0 
10300000    475.35091    63584.896    409.10484   -378.35191      623.146    244.79409    685.59673   -378.35191            0   -8.2360682            0            0            0            0            0            0 
10301000    393.93689    69622.507    382.64591    -350.2466    582.84392    232.59732    632.59014    -350.2466            0   -7.5218427            0            0            0            0            0            0 
10302000    524.40507    70975.246    415.43543   -324.03621    632.78873    308.75252    851.56482   -324.03621            0   -7.3784816            0            0            0            0            0            0 
10303000    493.18834    70822.356    414.81488   -329.22286     631.8435    302.62065    812.02079   -329.22286            0   -7.3944101            0            0            0            0            0            0 
10304000    541.73707    71810.983    417.14159   -309.53591    635.38754    325.85163    893.20718   -309.53591            0   -7.2926108            0            0            0            0            0            0 
10305000    537.77252    70053.967    447.70505   -335.45823    681.94161    346.48338    895.90688   -335.45823            0   -7.4755159            0            0            0            0            0            0 
10306000    486.38939    70274.354    427.09647   -330.77601    650.55075    319.77474     818.2652   -330.77601            0    -7.452072            0            0            0            0            0            0 
10307000    414.85361    71655.132    420.13672   -335.26521     639.9497    304.68449     738.2134   -335.26521            0   -7.3084723            0            0            0            0            0            0 
10308000    439.99927    73842.655     402.9722   -313.22856    613.80481    300.57625    774.41999   -313.22856            0   -7.0919653            0            0            0            0            0            0 
10309000    562.04901    70153.603    417.50764   -322.49113     635.9451    313.45398    888.49663   -322.49113            0   -7.4648988            0            0            0            0            0            0 
10310000    449.29668    71230.133    430.72128   -338.77672    656.07204    317.29532    784.03299   -338.77672            0   -7.3520787            0            0            0            0            0            0 
10311000    488.58859      69419.6    409.53137   -339.95308    623.79571    283.84263    778.49639   -339.95308            0   -7.5438283            0            0            0            0            0            0 
10312000    480.04373    72985.612    407.53492   -314.95573    620.75471    305.79898    816.76727   -314.95573            0   -7.1752436            0            0            0            0            0            0 
10313000     569.0447     66979.69    409.99763   -346.90682    624.50591     277.5991    833.45908   -346.90682            0    -7.818632            0            0            0            0            0            0 
10314000    527.03225    70712.171    426.04178   -327.26893    648.94426    321.67533    865.18498   -327.26893            0   -7.4059322            0            0            0            0            0            0 
10315000    443.98433    72369.061    415.57335   -326.61175    632.99881    306.38706    774.98079   -326.61175            0   -7.2363734            0            0            0            0            0            0 
10316000    420.97614    73585.262    395.13543    -328.5285    601.86789    273.33939    725.11649    -328.5285            0   -7.1167721            0            0            0            0            0            0 
10317000    519.44578    72029.518    422.15911   -325.34445     643.0302    317.68575     863.3514   -325.34445            0   -7.2704852            0            0            0            0            0            0 
10318000    500.09754    70898.404    409.67918   -329.61841    624.02085    294.40243    811.49354   -329.61841            0   -7.3864786            0            0            0            0            0            0 
10319000    474.42371    70098.661    406.44307   -331.35531    619.09163    287.73631    772.74777   -331.35531            0   -7.4707497            0            0            0            0            0            0 
10320000    506.25801    75746.093    413.54413   -300.79378    629.90792    329.11414    888.36677   -300.79378            0   -6.9137499            0            0            0            0            0            0 
10321000     501.8044    68309.785    404.22787   -344.38112    615.71743    271.33631    771.24797   -344.38112            0   -7.6663914            0            0            0            0            0            0 
10322000    436.56048    68462.931    416.59517   -346.13565    634.55524    288.41959    724.30847   -346.13565            0   -7.6492423            0            0            0            0            0            0 
10323000    542.33574    70295.212    396.03464   -324.93278    603.23757    278.30479    834.29848   -324.93278            0   -7.4498608            0            0            0            0            0            0 
10324000    454.31091    72688.131    424.02561   -332.82509    645.87324    313.04815    794.65488   -332.82509            0   -7.2046088            0            0            0            0            0            0 
10325000    523.29023    65509.289    402.39858   -364.58462    612.93108    248.34645    748.29051   -364.58462            0   -7.9941265            0            0            0            0            0            0 
10326000    503.47162    68261.531    418.58353   -347.78563     637.5839    289.79826    791.01655   -347.78563            0   -7.6718107            0            0            0            0            0            0 
10327000    523.89273    71479.735    435.77692   -317.69278    663.77277    346.07999    892.21648   -317.69278            0   -7.3264058            0            0            0            0            0            0 
10328000    488.90267    68509.709    417.34363   -351.16623    635.69529    284.52906    773.01315   -351.16623            0   -7.6440194            0            0            0            0            0            0 
10329000    366.90801    71060.071    435.92949   -350.44081    664.00515    313.56434    693.80514   -350.44081            0   -7.3696738            0            0            0            0            0            0 
10330000    491.02057    66269.726    398.67771   -363.41742    607.26346    243.84605    718.40563   -363.41742            0    -7.902395            0            0            0            0            0            0 
10331000    403.63066    73882.112     398.5845   -322.59363     607.1215    284.52787    719.43782   -322.59363            0   -7.0881777            0            0            0            0            0            0 
10332000    453.79368    71172.571    426.23377   -336.16781     649.2367    313.06889    784.09717   -336.16781            0   -7.3580249            0            0            0            0            0            0 
10333000    458.90236    69846.703    385.93234   -342.71051     587.8498    245.13928    712.59674   -342.71051            0   -7.4976989            0            0            0            0            0            0 
10334000    483.35014     70277.93    431.47991   -335.20869    657.22758    322.01889    817.41969   -335.20869            0   -7.4516928            0            0            0            0            0            0 
10335000    522.97132     67964.95    438.87503   -348.54443    668.49179    319.94736    838.31606   -348.54443            0   -7.7052885            0            0            0            0            0            0 
10336000    469.95713    72452.753    428.96828    -326.7675    653.40189    326.63439    823.21416    -326.7675            0   -7.2280145            0            0            0            0            0            0 
10337000    464.84066    71551.812    433.22977   -331.68031    659.89295    328.21264    813.27842   -331.68031            0   -7.3190256            0            0            0            0            0            0 
10338000    500.57842    68208.488    421.02236   -351.27086     641.2987    290.02784    787.97864   -351.27086            0   -7.6777768            0            0            0            0            0            0 
10339000    593.91743    69794.379    424.01485    -326.9723    645.85684    318.88455    923.42088    -326.9723            0   -7.5033198            0            0            0            0            0            0 
10340000    459.27033    72009.569    442.96376   -337.13573    674.71972    337.58399    819.90312   -337.13573            0   -7.2724993            0            0            0            0            0            0 
10341000    531.30238    71234.774    410.86376   -331.24688    625.82518     294.5783    846.54096   -331.24688            0   -7.3515997            0            0            0            0            0            0 
10342000     478.6507    69989.484    413.95747   -339.24897    630.53751    291.28854    779.85919   -339.24897            0   -7.4824033            0            0            0            0            0            0 
10343000    496.68467    69500.238    423.64504   -339.68044    645.29355    305.61311    809.04757   -339.68044            0   -7.5350756            0            0            0            0            0            0 
10344000    459.75449    74670.557    409.06378   -313.59045    623.08346    309.49302    810.16266   -313.59045            0   -7.0133338            0            0            0            0            0            0 
10345000    471.92487    68642.334    429.39983   -348.07245    654.05921    305.98676    778.42038   -348.07245            0   -7.6292503            0            0            0            0            0            0 
10346000    465.52121    68320.012     420.8749   -358.51641     641.0741    282.55769    746.39245   -358.51641            0   -7.6652438            0            0            0            0            0            0 
10347000    433.11388    71163.119     444.0639   -349.27035    676.39544    327.12509    776.62848   -349.27035            0   -7.3590022            0            0            0            0            0            0 
10348000    415.15953    69116.042    424.33584   -357.82937    646.34579    288.51642    706.99165   -357.82937            0   -7.5769609            0            0            0            0            0            0 
10349000    430.63017    68855.454    420.12468   -355.94202    639.93136    283.98933     716.4222   -355.94202            0   -7.6056363            0            0            0            0            0            0 
10350000    467.07142    73760.637     428.4952   -314.72576    652.68129    337.95552     840.3951   -314.72576            0   -7.0998512            0            0            0            0            0            0 
10351000     498.1369     69164.42    426.79253   -346.09446     650.0878    303.99334    806.46011   -346.09446            0    -7.571661            0            0            0            0            0            0 
10352000    507.72782    69182.798    436.25471   -330.63024    664.50054     333.8703    846.14744   -330.63024            0   -7.5696496            0            0            0            0            0            0 
10353000    482.77581    68859.206     415.6791   -345.12575    633.15988    288.03413    772.85734   -345.12575            0    -7.605222            0            0            0            0            0            0 
[...]
14939000    635.88131    63930.776    413.46516   -356.67363    629.78763    273.11399    865.98734   -356.67363            0   -8.1915093            0            0            0            0            0            0 
14940000    435.74498    74102.395    440.22479   -320.97296    670.54773    349.57477     820.4876   -320.97296            0   -7.0671069            0            0            0            0            0            0 
14941000    569.57028     71651.51    440.08839   -315.77603    670.33997    354.56393    949.74424   -315.77603            0   -7.3088417            0            0            0            0            0            0 
14942000    509.85301     67840.73    418.77361   -352.21772    637.87342     285.6557    790.09786   -352.21772            0   -7.7193973            0            0            0            0            0            0 
14943000    490.83411    73250.403    420.58537   -308.52375    640.63308    332.10933    856.45858   -308.52375            0    -7.149306            0            0            0            0            0            0 
14944000    475.58393    72873.447    425.24172   -323.86044    647.72561    323.86516    829.30838   -323.86044            0   -7.1862876            0            0            0            0            0            0 
14945000     506.4507    69827.987    432.14613   -333.41882    658.24237    324.82355    840.57753   -333.41882            0   -7.4997084            0            0            0            0            0            0 
14946000    483.00624     70555.08    403.21127   -329.17085    614.16897    284.99812    781.99873   -329.17085            0   -7.4224216            0            0            0            0            0            0 
14947000    392.08596    76324.323    414.81521     -324.326    631.84401      307.518    743.95357     -324.326            0   -6.8613716            0            0            0            0            0            0 
14948000    482.14078    68964.615    445.87475   -347.79632    679.15371    331.35739    816.28406   -347.79632            0   -7.5935978            0            0            0            0            0            0 
14949000    585.44412    66347.452    408.09301   -347.77191     621.6048    273.83288    840.31419   -347.77191            0   -7.8931373            0            0            0            0            0            0 
14950000    371.77923     71837.14    408.23928   -342.12722     621.8276    279.70038    669.20269   -342.12722            0   -7.2899554            0            0            0            0            0            0 
14951000    451.89866    70112.943    395.62009   -330.27421    602.60612    272.33191    734.40975   -330.27421            0   -7.4692279            0            0            0            0            0            0 
14952000    405.64571    70651.372    418.08323   -348.06045    636.82184    288.76139    706.72972   -348.06045            0   -7.4123054            0            0            0            0            0            0 
14953000    493.10294    71234.534    424.64462   -331.22125    646.81611    315.59487    827.87093   -331.22125            0   -7.3516245            0            0            0            0            0            0 
14954000    486.57616    71080.846    438.56664   -333.49663    668.02205    334.52542    838.93032   -333.49663            0   -7.3675198            0            0            0            0            0            0 
14955000    490.64488    70838.346    396.77722   -335.01057    604.36866    269.35808    776.24558   -335.01057            0    -7.392741            0            0            0            0            0            0 
14956000    539.90712    66848.656    438.95647   -363.68608    668.61583    304.92974    831.29549   -363.68608            0   -7.8339577            0            0            0            0            0            0 
14957000       423.95    74955.528    420.61608   -321.13239    640.67987    319.54748     782.9882   -321.13239            0   -6.9866701            0            0            0            0            0            0 
14958000    456.14449    74133.118    416.49836   -315.80301    634.40778    318.60477    811.76789   -315.80301            0    -7.064178            0            0            0            0            0            0 
14959000    524.61953    70299.913    443.12426   -343.35806    674.96418    331.60612    869.47341   -343.35806            0   -7.4493626            0            0            0            0            0            0 
14960000    527.99865    70125.621    427.45049   -335.43732    651.08999    315.65267     855.6423   -335.43732            0   -7.4678775            0            0            0            0            0            0 
14961000    480.36448    69753.323    433.21235   -349.20444    659.86643    310.66199     799.3275   -349.20444            0   -7.5077361            0            0            0            0            0            0 
14962000    479.85293    74087.439    419.04192   -312.77868    638.28211    325.50342    843.97938   -312.77868            0   -7.0685335            0            0            0            0            0            0 
14963000    473.66506    67903.223    427.22412   -355.92909    650.74518     294.8161    763.88607   -355.92909            0   -7.7122929            0            0            0            0            0            0 
14964000     592.0315    66880.222    425.73252   -344.65961    648.47319    303.81359    881.26894   -344.65961            0   -7.8302602            0            0            0            0            0            0 
14965000    540.58559    70630.543    415.81994   -331.01107    633.37441    302.36334    859.20651   -331.01107            0   -7.4144913            0            0            0            0            0            0 
14966000    503.58003    75488.174     414.0113   -293.55986     630.6195    337.05964    891.45975   -293.55986            0    -6.937372            0            0            0            0            0            0 
14967000    513.09005    70191.565    417.86157    -333.1375     636.4842     303.3467     828.5826    -333.1375            0   -7.4608615            0            0            0            0            0            0 
14968000    432.98634    72336.517    436.36916   -333.59417    664.67486     331.0807    787.86132   -333.59417            0    -7.239629            0            0            0            0            0            0 
14969000    484.05423    68749.969     406.0716   -345.05157    618.52579    273.47423    758.81012   -345.05157            0   -7.6173059            0            0            0            0            0            0 
14970000    537.16199    72996.895    408.58346   -316.76065    622.35185     305.5912    877.44571   -316.76065            0   -7.1741346            0            0            0            0            0            0 
14971000    558.97095    67859.306    425.61018   -340.81003    648.28684    307.47681    860.66709   -340.81003            0   -7.7172841            0            0            0            0            0            0 
14972000     580.5024    67288.306    427.89495   -342.68315    651.76699    309.08384    878.74879   -342.68315            0    -7.782772            0            0            0            0            0            0 
14973000    500.59436     71043.31    399.07319   -325.79899    607.86586    282.06687    800.72958   -325.79899            0   -7.3714126            0            0            0            0            0            0 
14974000    491.76118    69929.487    420.22398   -335.06089    640.08262    305.02172    806.54428   -335.06089            0    -7.488823            0            0            0            0            0            0 
14975000    494.06087    68943.129    428.68468   -345.20593     652.9699    307.76398     804.5248   -345.20593            0   -7.5959643            0            0            0            0            0            0 
14976000    482.11254    73201.937    427.66555   -327.92873    651.41757    323.48884    838.18021   -327.92873            0   -7.1540395            0            0            0            0            0            0 
14977000    499.36784     69997.89    430.28761   -332.52138    655.41148    322.89009    832.66848   -332.52138            0   -7.4815047            0            0            0            0            0            0 
14978000    391.91064    70089.726    422.23415   -351.01784     643.1445    292.12666    692.73253   -351.01784            0    -7.471702            0            0            0            0            0            0 
14979000    397.99001     74078.47    400.36368   -325.82855    609.83153    284.00298    713.97487   -325.82855            0   -7.0693893            0            0            0            0            0            0 
14980000     521.3089    68790.902    410.27111   -342.01404    624.92247    282.90844    805.90885   -342.01404            0   -7.6127734            0            0            0            0            0            0 
14981000    462.51197     68933.63    421.38722   -343.16742    641.85446    298.68704    763.66247   -343.16742            0    -7.597011            0            0            0            0            0            0 
14982000    487.05498    70527.122    430.61541   -330.50171    655.91078    325.40908    826.37714   -330.50171            0   -7.4253639            0            0            0            0            0            0 
14983000    461.04964    70754.149    414.89268   -328.42472    631.96201    303.53729    779.28366   -328.42472            0   -7.4015383            0            0            0            0            0            0 
14984000    416.93469    73732.576    429.28571    -329.9278    653.88539    323.95759    772.29329    -329.9278            0   -7.1025533            0            0            0            0            0            0 
14985000    526.32717     65613.79     425.4624   -364.18077    648.06175    283.88098    787.52862   -364.18077            0   -7.9813946            0            0            0            0            0            0 
14986000    417.54298    72264.187    413.25689   -331.80977    629.47039    297.66062    737.70877   -331.80977            0   -7.2468752            0            0            0            0            0            0 
14987000    486.72447    71392.629    441.20419   -329.08917    672.03955    342.95039     849.7222   -329.08917            0   -7.3353447            0            0            0            0            0            0 
14988000    590.28618    69563.638    424.56007   -317.70914    646.68732    328.97819    927.83196   -317.70914            0   -7.5282082            0            0            0            0            0            0 
14989000    422.84399    73544.736    443.65661   -331.19984    675.77507    344.57522    798.10693   -331.19984            0   -7.1206938            0            0            0            0            0            0 
14990000    467.90708    68742.038    419.19888   -342.37343     638.5212    296.14776    765.23963   -342.37343            0   -7.6181848            0            0            0            0            0            0 
14991000    484.94621    71102.969    428.81499   -336.25247    653.16839    316.91592    819.78762   -336.25247            0   -7.3652276            0            0            0            0            0            0 
14992000    542.65223     69050.51    419.67148   -336.82175    639.24106    302.41931    848.88685   -336.82175            0   -7.5841518            0            0            0            0            0            0 
14993000       515.89    70871.415    441.85309   -329.68589    673.02795    343.34206     876.5592   -329.68589            0   -7.3892915            0            0            0            0            0            0 
14994000    598.67504    66794.724     429.8533   -342.81164    654.74994     311.9383    895.12714   -342.81164            0   -7.8402831            0            0            0            0            0            0 
14995000    434.21795    70489.243    436.38355   -340.25319    664.69677    324.44358    770.82542   -340.25319            0   -7.4293541            0            0            0            0            0            0 
14996000    482.31658    68321.841    418.37591   -343.05228    637.26764    294.21536    774.79752   -343.05228            0   -7.6650385            0            0            0            0            0            0 
14997000    430.51419    69858.552    399.99606   -350.11467    609.27157     259.1569    697.77136   -350.11467            0   -7.4964271            0            0            0            0            0            0 
14998000    484.29405    72112.919    439.88074   -330.82861    670.02368    339.19507    848.52371   -330.82861            0   -7.2620767            0            0            0            0            0            0 
14999000    591.58861    67884.946    435.78145    -347.1048    663.77966    316.67486     902.3667    -347.1048            0   -7.7143693            0            0            0            0            0            0 
15000000    508.89907    67937.948    404.99598   -341.71772    616.88742     275.1697    779.38959   -341.71772            0   -7.7083509            0            0            0            0            0            0 
Loop time of 1251.02 on 8 procs for 5000000 steps with 512 atoms

Pair  time (%) = 665.537 (53.1994)
Bond  time (%) = 0.459488 (0.0367289)
Neigh time (%) = 31.1226 (2.48777)
Comm  time (%) = 395.693 (31.6295)
Outpt time (%) = 0.265778 (0.0212449)
Other time (%) = 157.946 (12.6253)

Nlocal:    64 ave 70 max 55 min
Histogram: 1 0 0 1 0 1 2 1 0 2
Nghost:    1154.25 ave 1205 max 1118 min
Histogram: 1 1 2 0 1 2 0 0 0 1
Neighs:    4873.5 ave 5414 max 4199 min
Histogram: 1 1 0 0 2 0 1 1 1 1

Total # of neighbors = 38988
Ave neighs/atom = 76.1484
Ave special neighs/atom = 0
Neighbor list builds = 95233
Dangerous builds = 0

Averages
Group Pressure(MPa) Volume(m3) Temperature(K) PE(J) KE(J) ET(J) ET^2(J) H(J) H^2(J^2) V^2(m6) V*H(m3*J) Hconf(J) Uext*Hconf(J^2) V*Hconf(m3*J) Uext(J)
Block1 49.757021962320585828 7.0583529087631595568e-26 420.32588510025829009 -2.3218894232697812722e-18 4.4481771349460335443e-18 2.1262877116762584351e-18 4.556871966391379921e-36 5.6324899636572475707e-18 3.1932551185230340895e-35 4.9876112416969571473e-51 3.9762120784737026851e-43 1.1843128287111986189e-18 -2.7299081978190327622e-36 8.3642753703325963556e-44 -2.3218894232697812722e-18
Block2 50.143036064168271082 7.0591170934515575604e-26 420.285715198131129 -2.3161149287445505577e-18 4.4477520294588686882e-18 2.131637100714327375e-18 4.5779375086325680615e-36 5.6659528619573846152e-18 3.2323901131220151586e-35 4.9880364493281992298e-51 3.9999442971822406641e-43 1.2182008324985111122e-18 -2.8011609804470849922e-36 8.6028960648215920748e-44 -2.3161149287445505577e-18
Block3 49.855537204745154156 7.0506462565409288137e-26 419.94224696361550286 -2.3213866372293816738e-18 4.4441172127570921967e-18 2.1227305755277128341e-18 4.5390861079058053768e-36 5.6312954264192025558e-18 3.1918001190160405471e-35 4.976559622307463969e-51 3.9703066898371177628e-43 1.187178213662108048e-18 -2.7383688189842207864e-36 8.3674190382611673594e-44 -2.3213866372293816738e-18
Block4 49.787301854828427849 7.0613556319035625659e-26 419.70197210127361132 -2.3176303575770130306e-18 4.4415744591778853306e-18 2.1239441016008746111e-18 4.5442737410138226584e-36 5.6333945362997750541e-18 3.1973208465615919895e-35 4.9916462718347971512e-51 3.9778014390278351449e-43 1.191820077121892805e-18 -2.7410233966507080369e-36 8.4157447173877242256e-44 -2.3176303575770130306e-18
Block5 50.205326277415615266 7.0538414271472143342e-26 420.59983219729417669 -2.3186500877670715552e-18 4.4510762312339841673e-18 2.1324261434669164639e-18 4.5821394858180937217e-36 5.6677427611442732691e-18 3.2342525749670192704e-35 4.9810835084946187369e-51 3.9980372638149891157e-43 1.2166665299102815907e-18 -2.8012864947279433565e-36 8.5838404427813969899e-44 -2.3186500877670715552e-18
Ave_blocks 49.949644672695612257 7.0566626635612847958e-26 420.17113031211454199 -2.3191342869175595409e-18 4.4465394135147732476e-18 2.1274051265972179438e-18 4.5600617619523338142e-36 5.6461751098955770752e-18 3.2098037544379401041e-35 4.9849874187324074842e-51 3.9844603536671770745e-43 1.199635696380798435e-18 -2.7623495777257979868e-36 8.4668351267168954011e-44 -2.3191342869175595409e-18
Stdev_blocks 0.18713002318027574522 3.8745744315734159864e-29 0.31412133354263571672 2.2034806240176028512e-21 3.3242476444910872934e-21 3.9547175162327072781e-21 1.7357319343860922799e-38 1.6901800651782565253e-20 1.9296111794695859139e-37 5.4182954309926538472e-54 1.2139080554927526305e-45 1.4736190983323207687e-20 3.1952259407278879637e-38 1.0508578882432218563e-45 2.2034806240176028512e-21






Properties
Group rho(kg/m3) Cp(J/K) Cp_conf(J/K) Cp_id(J/K) Cp2(J/K) kT(1/Pa) aP(1/K) aP2(1/K) Cv(J/K) uJT(K/Pa) sos(m/s) Cv2(J/K) uJT2(K/Pa) sos2(m/s) CvNVT(J/K)
Block1 193.23536718101377119 8.5111565960861452448e-20 2.1191140981179437978e-21 3.5508223461939018058e-20 3.7627337560056960352e-20 1.3614499932742425069e-08 0.00034958744457644125216 0.00028910118379802323763 8.4845248608889458145e-20 -7.0744720319656068273e-07 617.49916102419626895 3.7445205017315573629e-20 -1.6479095999216556153e-06 618.02989489379012866 1.4665409957189490989e-20
Block2 193.21444848723069754 9.0569617492390756958e-20 1.9823261029492888288e-21 3.5506251237941725577e-20 3.7488577340891015911e-20 1.2018623366652306926e-08 0.00016370435768549193275 0.00020177857690413018529 9.0503462782422204032e-20 -7.2578770278380306743e-07 656.46489382737001961 3.7388071708872557306e-20 -1.7233172268816970275e-06 657.10653097935289679 1.3966323723965972311e-20
Block3 193.44658154601151523 8.481742097079165112e-20 -4.7378865642693431473e-22 3.5489391982127837229e-20 3.5015603325700904419e-20 1.3205657664441256778e-08 -7.0200271579036737247e-05 -0.00017210992080455073312 8.4806371638274227574e-20 -8.5577934893843295858e-07 625.70228777959368927 3.4949187700013991828e-20 -2.1591061260941682441e-06 626.25573593175568021 1.3594990601907568223e-20
Block4 193.15319707957357309 9.7892084340870492401e-20 1.6131596521585263358e-21 3.5477602306713333116e-20 3.7090761958871857947e-20 1.312860254538148453e-08 -8.0814213892887914515e-05 -7.0281502643200843304e-06 9.7877341332939790506e-20 -7.4580717418963352295e-07 628.0185979610424738 3.7090650454301098076e-20 -1.9094201197315477499e-06 627.97224882972534488 1.3624616346535128736e-20
Block5 193.35895626585374885 8.9754099180257345464e-20 1.354965521097716615e-21 3.5521676076302964576e-20 3.6876641597400682695e-20 1.3221180098118406542e-08 5.8853180991876922448e-05 9.6797311326341119305e-05 8.9746326613715856704e-20 -7.6645337120318460583e-07 625.46289152406916401 3.6855615863924119431e-20 -1.8349444421496284346e-06 625.61418564979453549 1.4288346438943012243e-20
Ave_blocks 193.28171011193666118 8.9628957589034342086e-20 1.3191553435793082525e-21 3.5500629013004975711e-20 3.681978435658427945e-20 1.3037712721467174976e-08 8.4226099556377101961e-05 8.1707800191924747496e-05 8.9555750195248295355e-20 -7.6025496006232303103e-07 630.62956642325434586 3.674574614888546685e-20 -1.854939502955739626e-06 630.99571925688383089 1.4027937413708236908e-20
Stdev_blocks 0.10614796367396514554 4.7484203044701804763e-21 9.3617290651693073609e-22 1.5419234785786715168e-23 9.4139864364370915305e-22 5.3690843585190402504e-10 0.00016028913319876723844 0.00016121675144063166586 4.7943462422858785292e-21 5.1669562988176467379e-08 13.398965995018222941 9.2309018281277894195e-22 1.7667545330439149463e-07 13.494123235923469295 4.0696220363907498367e-22






