LAMMPS (28 Oct 2012)
Scanning data file ...
Reading data file ...
  orthogonal box = (0 0 0) to (100 100 100)
  2 by 2 by 2 MPI processor grid
  512 atoms
Finding 1-2 1-3 1-4 neighbors ...
  0 = max # of 1-2 neighbors
  0 = max # of 1-3 neighbors
  0 = max # of 1-4 neighbors
  1 = max # of special neighbors
WARNING: Resetting reneighboring criteria during minimization (min.cpp:173)
Setting up minimization ...
Memory usage per processor = 4.05499 Mbytes
Step Temp E_pair E_mol TotEng Press 
       0       580.15    1409.7233            0    2293.4043    452.91153 
     701       580.15   -217.27527            0     666.4057    40.166635 
Loop time of 0.0525873 on 8 procs for 701 steps with 512 atoms

Minimization stats:
  Stopping criterion = energy tolerance
  Energy initial, next-to-last, final = 
         1409.72334813     -217.256630745     -217.275265106
  Force two-norm initial, final = 5034.49 0.337455
  Force max component initial, final = 2457.89 0.147661
  Final line search alpha, max atom move = 0.254892 0.0376377
  Iterations, force evaluations = 701 710

Pair  time (%) = 0.0089393 (16.999)
Bond  time (%) = 6.25849e-05 (0.119011)
Neigh time (%) = 0.00314242 (5.97562)
Comm  time (%) = 0.0204642 (38.9148)
Outpt time (%) = 0 (0)
Other time (%) = 0.0199788 (37.9916)

Nlocal:    64 ave 74 max 52 min
Histogram: 1 0 0 1 1 2 0 2 0 1
Nghost:    235.125 ave 266 max 224 min
Histogram: 4 0 2 0 0 1 0 0 0 1
Neighs:    316.25 ave 371 max 226 min
Histogram: 1 0 0 1 1 1 0 1 0 3

Total # of neighbors = 2530
Ave neighs/atom = 4.94141
Ave special neighs/atom = 0
Neighbor list builds = 60
Dangerous builds = 0
Setting up run ...
Memory usage per processor = 3.36354 Mbytes
Step Temp E_pair E_mol TotEng Press Volume 
     701       580.15   -217.27527            0     666.4057    40.166635      1000000 
 5000701    585.48033   -206.13857            0    685.66152     478.4261     103769.2 
Loop time of 1021.22 on 8 procs for 5000000 steps with 512 atoms

Pair  time (%) = 488.388 (47.824)
Bond  time (%) = 0.441833 (0.0432651)
Neigh time (%) = 26.5402 (2.59886)
Comm  time (%) = 353.081 (34.5743)
Outpt time (%) = 4.10378e-05 (4.0185e-06)
Other time (%) = 152.77 (14.9596)

Nlocal:    64 ave 73 max 58 min
Histogram: 1 1 1 1 2 0 1 0 0 1
Nghost:    862.875 ave 884 max 834 min
Histogram: 1 0 0 0 1 3 0 1 1 1
Neighs:    3168.12 ave 3694 max 2829 min
Histogram: 1 2 1 1 1 0 0 0 1 1

Total # of neighbors = 25345
Ave neighs/atom = 49.502
Ave special neighs/atom = 0
Neighbor list builds = 112055
Dangerous builds = 1
Setting up run ...
Memory usage per processor = 3.94017 Mbytes
Step Press Volume Temp PotEng KinEng TotEng Enthalpy E_vdwl E_coul E_tail E_long E_bond E_angle E_dihed E_impro E_mol 
10000000     478.4261     103769.2    585.48033   -206.13857    891.80009    685.66152     1409.696   -206.13857            0    -5.046676            0            0            0            0            0            0 
10001000     526.8746    97134.555    574.75413    -217.3282      875.462     658.1338    1404.5085    -217.3282            0   -5.3913826            0            0            0            0            0            0 
10002000    513.52774    97037.771    560.89586   -220.41042    854.35317    633.94274    1360.6853   -220.41042            0   -5.3967599            0            0            0            0            0            0 
10003000    479.14224    99624.296    584.19946   -216.14349    889.84907    673.70558      1369.86   -216.14349            0   -5.2566449            0            0            0            0            0            0 
10004000    587.24757    95037.496    590.03789   -215.56602    898.74213    683.17611    1497.1156   -215.56602            0   -5.5103466            0            0            0            0            0            0 
10005000    542.44477    91409.613    564.58144   -235.90537    859.96703    624.06166    1347.2032   -235.90537            0   -5.7290424            0            0            0            0            0            0 
10006000     474.2417    102467.38    569.07761   -213.11809    866.81557    653.69748    1362.3955   -213.11809            0   -5.1107929            0            0            0            0            0            0 
10007000    497.52113    98406.019    607.84154   -220.74642    925.86054    705.11413     1419.132   -220.74642            0   -5.3217227            0            0            0            0            0            0 
10008000    505.99909    98023.319     577.2112   -214.18413    879.20459    665.02047    1388.3814   -214.18413            0   -5.3424996            0            0            0            0            0            0 
10009000    506.23945    98041.276    570.79608   -219.13277    869.43313    650.30036    1374.1375   -219.13277            0   -5.3415211            0            0            0            0            0            0 
10010000    406.95373     99973.72    554.79278   -227.94485      845.057    617.11214    1210.4564   -227.94485            0   -5.2382721            0            0            0            0            0            0 
10011000    437.52236    93624.267    562.47999   -255.04897     856.7661    601.71713    1199.1162   -255.04897            0   -5.5935236            0            0            0            0            0            0 
10012000    510.58213    101940.29    578.38258   -204.42541    880.98884    676.56343    1435.6431   -204.42541            0   -5.1372186            0            0            0            0            0            0 
10013000    565.81686    94726.335    635.34695   -225.96301    967.75662    741.79361    1523.4619   -225.96301            0   -5.5284473            0            0            0            0            0            0 
10014000    512.35105    98895.369    580.62126   -213.50396    884.39878    670.89483    1409.8523   -213.50396            0     -5.29539            0            0            0            0            0            0 
10015000    489.97709    98305.221    568.15066     -216.681    865.40364    648.72264    1351.1934     -216.681            0   -5.3271794            0            0            0            0            0            0 
10016000    487.50729    96617.822    580.92003   -225.70715    884.85387    659.14672    1346.0795   -225.70715            0   -5.4202169            0            0            0            0            0            0 
10017000     566.7755    97508.733    631.15699   -215.04329     961.3745    746.33121    1552.3227   -215.04329            0   -5.3706938            0            0            0            0            0            0 
10018000    501.24517    105132.93    578.85863    -193.9838    881.71395    687.73015    1456.2673    -193.9838            0   -4.9812133            0            0            0            0            0            0 
10019000    484.00627    92446.446    541.57844   -235.59669      824.929     589.3323    1241.8873   -235.59669            0   -5.6647883            0            0            0            0            0            0 
10020000    573.74685    94038.696    595.09718   -219.38663    906.44842    687.06179    1473.9314   -219.38663            0   -5.5688729            0            0            0            0            0            0 
10021000    433.91082    101041.01    584.61525   -222.91293     890.4824    667.56947    1306.9715   -222.91293            0   -5.1829406            0            0            0            0            0            0 
10022000    460.88321    97487.419     573.5717   -229.55051    873.66093    644.11042     1299.373   -229.55051            0    -5.371868            0            0            0            0            0            0 
10023000    418.08026    96966.768     548.5609   -234.32572    835.56464    601.23891    1192.4716   -234.32572            0   -5.4007116            0            0            0            0            0            0 
10024000    438.43301    96079.019    572.49148   -236.11358    872.01556    635.90198    1250.2404   -236.11358            0   -5.4506129            0            0            0            0            0            0 
10025000     462.3668    102132.32    542.62878   -200.80075    826.52887    625.72812    1314.4212   -200.80075            0   -5.1275594            0            0            0            0            0            0 
10026000     510.8163    93999.327    578.16525   -228.73077    880.65781    651.92704    1352.1968   -228.73077            0   -5.5712053            0            0            0            0            0            0 
10027000    533.04616    98418.939    591.09415   -215.23375    900.35103    685.11728    1450.2194   -215.23375            0   -5.3210241            0            0            0            0            0            0 
10028000    481.77483    100452.17    573.00395   -203.32744    872.79615    669.46871    1375.2649   -203.32744            0   -5.2133222            0            0            0            0            0            0 
10029000    503.21162    99179.715    582.26787    -214.2253     886.9069    672.68159    1400.5442    -214.2253            0   -5.2802082            0            0            0            0            0            0 
10030000     477.1104    97893.396    593.00079   -230.00862     903.2552    673.24658    1354.4051   -230.00862            0   -5.3495901            0            0            0            0            0            0 
10031000    460.30372     96144.51    541.74549   -238.83119    825.18344    586.35226    1231.7759   -238.83119            0   -5.4469001            0            0            0            0            0            0 
10032000     417.2769    103947.13    564.75749   -222.61125    860.23518    637.62393       1270.2   -222.61125            0   -5.0380376            0            0            0            0            0            0 
10033000    504.50351    97778.572    598.88994   -220.21708    912.22553    692.00845    1411.4305   -220.21708            0   -5.3558723            0            0            0            0            0            0 
10034000    554.53024    95838.817    612.42617   -224.00636    932.84383    708.83747    1483.9104   -224.00636            0   -5.4642739            0            0            0            0            0            0 
10035000    384.16211    104224.04    568.50012    -227.6676    865.93594    638.26834     1222.195    -227.6676            0   -5.0246524            0            0            0            0            0            0 
10036000    567.99994    93467.086    634.08246    -234.5965    965.83056    731.23406     1505.487    -234.5965            0     -5.60293            0            0            0            0            0            0 
10037000    551.71901      97130.2    596.84412   -219.39405    909.10935    689.71529    1471.2497   -219.39405            0   -5.3916243            0            0            0            0            0            0 
10038000    448.78764    98788.678    543.48387   -226.26614    827.83134     601.5652    1248.1477   -226.26614            0   -5.3011089            0            0            0            0            0            0 
10039000    461.97452    100356.92    562.99013   -213.31741    857.54315    644.22574    1320.3729   -213.31741            0   -5.2182707            0            0            0            0            0            0 
10040000    485.64365    99223.473    593.90684   -224.91908    904.63529    679.71621    1382.4778   -224.91908            0   -5.2778796            0            0            0            0            0            0 
10041000    474.99003    97359.846    614.09397   -232.33113    935.38421    703.05307    1377.4883   -232.33113            0   -5.3789069            0            0            0            0            0            0 
10042000    486.69621    98288.861    562.68784   -213.74405    857.08271    643.33866    1340.9896   -213.74405            0   -5.3280661            0            0            0            0            0            0 
10043000    494.05138    95666.654    552.01071   -229.92468    840.81937    610.89469    1300.1952   -229.92468            0   -5.4741074            0            0            0            0            0            0 
10044000    448.90172    105384.89    556.80977   -205.53896    848.12927    642.59031    1332.5211   -205.53896            0   -4.9693039            0            0            0            0            0            0 
10045000    524.98164    97850.041    590.58174   -226.00751    899.57053    673.56302    1422.7341   -226.00751            0   -5.3519604            0            0            0            0            0            0 
10046000    432.13137    103053.39    582.96112   -222.92683    887.96284      665.036    1314.4983   -222.92683            0   -5.0817303            0            0            0            0            0            0 
10047000    524.49423    97645.812    570.88861   -210.91386    869.57407    658.66021    1405.5736   -210.91386            0   -5.3631542            0            0            0            0            0            0 
10048000    467.14177    95747.943    588.39839    -232.6661    896.24486    663.57877    1315.8888    -232.6661            0     -5.46946            0            0            0            0            0            0 
10049000    501.16967    99608.818    596.74854   -219.65282    908.96376    689.31094    1417.3563   -219.65282            0   -5.2574617            0            0            0            0            0            0 
10050000    470.03515    97634.112    555.51639   -223.69191    846.15919    622.46728    1291.7472   -223.69191            0   -5.3637969            0            0            0            0            0            0 
10051000    581.50405    101076.38    631.00536   -196.69049    961.14354    764.45304    1621.6454   -196.69049            0    -5.181127            0            0            0            0            0            0 
10052000    404.07806    102243.86    580.88847    -227.8716    884.80579    656.93419    1259.4638    -227.8716            0   -5.1219658            0            0            0            0            0            0 
10053000     511.3903    93444.454    550.13211    -225.3927    837.95789    612.56519    1309.4835    -225.3927            0   -5.6042871            0            0            0            0            0            0 
10054000    506.48869    97117.897    578.83548   -223.16144    881.67869    658.51725    1375.8901   -223.16144            0   -5.3923073            0            0            0            0            0            0 
10055000    538.31213    100151.91    577.97313   -197.63613    880.36517    682.72903    1468.9946   -197.63613            0   -5.2289523            0            0            0            0            0            0 
10056000    465.39295    99848.112    554.81786   -216.82883    845.09519    628.26636    1305.9633   -216.82883            0   -5.2448618            0            0            0            0            0            0 
10057000    502.61928    97987.547    563.90433   -221.89375    858.93566    637.04191    1355.3089   -221.89375            0     -5.34445            0            0            0            0            0            0 
10058000    495.39458    93662.963    585.53442   -242.40403    891.88248    649.47845    1326.1767   -242.40403            0   -5.5912127            0            0            0            0            0            0 
10059000    550.91229    100260.36    586.85596   -208.28302    893.89544    685.61242    1491.1533   -208.28302            0   -5.2232962            0            0            0            0            0            0 
10060000    455.87291    100391.64    567.20911   -224.28996    863.96948    639.67952    1307.1272   -224.28996            0   -5.2164658            0            0            0            0            0            0 
10061000    596.33649    93744.536    604.55559    -218.9716    920.85541    701.88381    1517.1759    -218.9716            0   -5.5863474            0            0            0            0            0            0 
10062000    451.29335     100976.9    595.91401   -224.52623     907.6926    683.16638     1347.761   -224.52623            0   -5.1862312            0            0            0            0            0            0 
10063000    513.66174    98789.352    570.34428   -215.90534    868.74495    652.83961    1392.8933   -215.90534            0   -5.3010728            0            0            0            0            0            0 
10064000    515.57916    98147.881    603.29207   -209.30192    918.93082     709.6289    1447.6218   -209.30192            0   -5.3357193            0            0            0            0            0            0 
10065000    552.39719    97026.376    602.01073   -218.49424     916.9791    698.48485    1480.1435   -218.49424            0   -5.3973937            0            0            0            0            0            0 
10066000    492.25265    96517.337    576.79003   -231.56722    878.56308    646.99586    1339.8938   -231.56722            0   -5.4258599            0            0            0            0            0            0 
10067000    442.58687    107416.44     575.1367   -206.54782    876.04473    669.49692    1362.8352   -206.54782            0     -4.87532            0            0            0            0            0            0 
10068000    535.96399    97854.562    577.21708   -212.49647    879.21356    666.71709    1431.5958   -212.49647            0   -5.3517131            0            0            0            0            0            0 
10069000    489.99442    96662.249    601.18944   -240.12784     915.7281    675.60026    1366.3551   -240.12784            0   -5.4177257            0            0            0            0            0            0 
10070000    539.21004    100293.95     630.3715   -214.77273    960.17805    745.40532    1534.0995   -214.77273            0   -5.2215465            0            0            0            0            0            0 
10071000    560.30898    93729.393    566.22636   -225.10857    862.47256    637.36399    1403.2767   -225.10857            0   -5.5872499            0            0            0            0            0            0 
10072000    504.78573    93349.767    575.01732   -232.90162    875.86289    642.96128    1330.1819   -232.90162            0   -5.6099716            0            0            0            0            0            0 
10073000    468.77767    102387.26     597.1215   -211.26469    909.53186    698.26716    1398.2522   -211.26469            0    -5.114792            0            0            0            0            0            0 
10074000    498.58172    95333.897      642.336   -242.92043    978.40231    735.48187    1428.6835   -242.92043            0   -5.4932145            0            0            0            0            0            0 
10075000    480.92828    98329.421    601.35367   -231.98862    915.97826    683.98964     1373.657   -231.98862            0   -5.3258683            0            0            0            0            0            0 
10076000    427.95771    100642.17    585.20695   -223.33792    891.38368    668.04576    1296.1862   -223.33792            0   -5.2034803            0            0            0            0            0            0 
10077000    483.82173    94877.897    582.19444   -238.28133    886.79505    648.51372    1317.9763   -238.28133            0   -5.5196159            0            0            0            0            0            0 
10078000    451.01471    104773.54    625.13938   -211.14706    952.20851    741.06145    1430.2185   -211.14706            0   -4.9982997            0            0            0            0            0            0 
10079000    529.95668    99624.813    615.00211   -212.86552    936.76748    723.90196    1493.8896   -212.86552            0   -5.2566176            0            0            0            0            0            0 
10080000    486.66942    96642.724    565.31153   -222.64433    861.07909    638.43476    1324.3637   -222.64433            0   -5.4188202            0            0            0            0            0            0 
10081000    403.00316    100233.92    558.22053   -234.60278    850.27812    615.67534    1204.7889   -234.60278            0   -5.2246739            0            0            0            0            0            0 
10082000    546.87383    92512.769    593.49082   -230.40989    904.00161    673.59173     1411.436   -230.40989            0   -5.6607272            0            0            0            0            0            0 
10083000    557.17655     100021.1    594.63451   -206.57562    905.74368    699.16806    1511.9244   -206.57562            0   -5.2357907            0            0            0            0            0            0 
10084000    431.39278    103987.14    586.75929     -214.775    893.74819    678.97319    1333.2001     -214.775            0   -5.0360992            0            0            0            0            0            0 
10085000    472.82788    97809.144     603.7782   -226.13423    919.67129    693.53706    1368.0005   -226.13423            0   -5.3541982            0            0            0            0            0            0 
10086000    562.61578      96254.9    596.23778   -225.93754    908.18578    682.24823    1472.0364   -225.93754            0   -5.4406534            0            0            0            0            0            0 
10087000    474.26849    100028.23     561.1862    -221.5823    854.79541    633.21311    1325.0803    -221.5823            0   -5.2354174            0            0            0            0            0            0 
10088000    515.64392    97771.071    622.87948   -222.47173    948.76625    726.29452    1461.5464   -222.47173            0   -5.3562832            0            0            0            0            0            0 
10089000     491.9575    102756.65    589.32995   -208.73524    897.66381    688.92857    1426.1762   -208.73524            0   -5.0964054            0            0            0            0            0            0 
10090000    540.11048    94424.783    570.94865   -226.39191    869.66553    643.27362    1387.0536   -226.39191            0   -5.5461027            0            0            0            0            0            0 
10091000    450.98152    94367.198     585.6904   -238.84614    892.12006    653.27392    1273.9367   -238.84614            0   -5.5494871            0            0            0            0            0            0 
10092000    479.05646    100624.61    586.66573    -217.7312    893.60568    675.87448     1378.893    -217.7312            0   -5.2043884            0            0            0            0            0            0 
10093000    477.51144    94551.349    604.25339     -240.195     920.3951     680.2001    1338.6571     -240.195            0   -5.5386788            0            0            0            0            0            0 
10094000    482.49913    98130.906    575.52587    -218.4234    876.63752    658.21412    1348.7373    -218.4234            0   -5.3366423            0            0            0            0            0            0 
10095000     489.2595    98117.362    558.17324    -204.5185    850.20609    645.68759    1345.7891    -204.5185            0    -5.337379            0            0            0            0            0            0 
10096000     473.3246    98672.431    585.86763   -222.53302    892.39003    669.85701    1350.9882   -222.53302            0   -5.3073543            0            0            0            0            0            0 
10097000    460.87464    103198.82    570.97882   -210.92272    869.71147    658.78875    1352.4277   -210.92272            0    -5.074569            0            0            0            0            0            0 
10098000    567.76688    92433.301    564.99763   -224.75273    860.60097    635.84823    1401.2235   -224.75273            0   -5.6655939            0            0            0            0            0            0 
10099000     428.8839    98819.706    559.33603   -222.56296    851.97725    629.41429    1247.5149   -222.56296            0   -5.2994445            0            0            0            0            0            0 
10100000    514.80388    99974.639    587.51564   -209.23156    894.90027    685.66871     1436.267   -209.23156            0   -5.2382239            0            0            0            0            0            0 
10101000    579.50877    93106.475    594.94463   -219.76345    906.21606     686.4526    1473.3458   -219.76345            0   -5.6246308            0            0            0            0            0            0 
10102000    476.87326    102380.65    569.73565   -203.40091    867.81788    664.41697    1376.4444   -203.40091            0   -5.1151222            0            0            0            0            0            0 
10103000    450.77694    98808.036    570.99903   -220.39925    869.74225      649.343    1298.9188   -220.39925            0   -5.3000704            0            0            0            0            0            0 
10104000    509.82267     97084.52    593.57174   -228.77034    904.12488    675.35454    1397.2013   -228.77034            0   -5.3941611            0            0            0            0            0            0 
10105000    486.44582    100584.62    571.44581    -203.3435    870.42279     667.0793    1380.6581    -203.3435            0   -5.2064574            0            0            0            0            0            0 
10106000    476.50815     96397.38     561.3796   -234.97714       855.09    620.11286    1290.0151   -234.97714            0   -5.4326118            0            0            0            0            0            0 
10107000    490.37275    98795.004    588.64085   -221.17158    896.61418     675.4426    1381.9833   -221.17158            0   -5.3007695            0            0            0            0            0            0 
10108000    516.54015    96733.895    572.06104   -216.70459    871.35991    654.65532    1383.3719   -216.70459            0    -5.413713            0            0            0            0            0            0 
10109000    500.20084    103349.09    548.86059   -197.67214    836.02113    638.34898    1392.2719   -197.67214            0   -5.0671906            0            0            0            0            0            0 
10110000     497.7191    104175.33    594.84646    -211.6322    906.06652    694.43431    1450.6141    -211.6322            0   -5.0270017            0            0            0            0            0            0 
10111000    527.50624    96628.291    607.98727   -236.95709    926.08252    689.12542    1432.5002   -236.95709            0   -5.4196296            0            0            0            0            0            0 
10112000    448.13547    101192.75    565.25028   -217.82582    860.98581    643.15998     1304.515   -217.82582            0   -5.1751684            0            0            0            0            0            0 
10113000    507.58913     92836.61    558.75226   -241.20816    851.08805    609.87989    1297.1184   -241.20816            0   -5.6409809            0            0            0            0            0            0 
10114000    445.17884    98875.969    616.96042   -228.40418    939.75037    711.34619    1353.2961   -228.40418            0   -5.2964289            0            0            0            0            0            0 
10115000    499.38563    101798.26    572.79294   -205.47402    872.47473    667.00071    1408.4002   -205.47402            0    -5.144386            0            0            0            0            0            0 
10116000    462.43688    101360.32    580.48095   -215.67794    884.18507    668.50713    1352.0981   -215.67794            0   -5.1666132            0            0            0            0            0            0 
10117000     492.1706    100768.73    570.56741   -213.17415    869.08482    655.91067    1379.2088   -213.17415            0   -5.1969452            0            0            0            0            0            0 
10118000    488.89435    97671.184    575.76835   -214.42831    877.00686    662.57855    1358.9763   -214.42831            0    -5.361761            0            0            0            0            0            0 
10119000    525.45973    99264.097    591.98838   -206.94577    901.71312    694.76735     1455.457   -206.94577            0   -5.2757196            0            0            0            0            0            0 
10120000    515.42288    98898.994    617.13776   -223.38214    940.02049    716.63835    1460.0536   -223.38214            0   -5.2951959            0            0            0            0            0            0 
10121000    496.20658     93346.42    578.19741   -232.34267    880.70679    648.36412    1323.8808   -232.34267            0   -5.6101728            0            0            0            0            0            0 
10122000    493.16867    103045.43    583.65963   -198.97154    889.02681    690.05527     1431.195   -198.97154            0   -5.0821231            0            0            0            0            0            0 
10123000    447.01761    99619.283    558.30211   -223.22776    850.40239    627.17463     1276.622   -223.22776            0   -5.2569094            0            0            0            0            0            0 
10124000    474.42749    95101.587    561.25376   -243.93954    854.89832    610.95878    1268.9703   -243.93954            0   -5.5066331            0            0            0            0            0            0 
10125000    463.37907    99923.484    615.89994   -232.60159    938.13506    705.53347    1380.8072   -232.60159            0   -5.2409056            0            0            0            0            0            0 
10126000     482.8456    100384.45    559.84178   -222.43257     852.7476    630.31504    1337.2031   -222.43257            0   -5.2168393            0            0            0            0            0            0 
10127000    485.99654    95742.859    566.64376   -226.26451    863.10834    636.84383    1315.4463   -226.26451            0   -5.4697504            0            0            0            0            0            0 
10128000    538.23546    96775.883    600.32218   -214.61344     914.4071    699.79366    1459.4468   -214.61344            0   -5.4113642            0            0            0            0            0            0 
10129000    486.01382    105799.85    597.81089    -201.6041    910.58192    708.97782    1458.8885    -201.6041            0   -4.9498138            0            0            0            0            0            0 
10130000    449.09818    94916.814    561.59455   -237.51448    855.41741    617.90293    1239.5735   -237.51448            0   -5.5173528            0            0            0            0            0            0 
10131000    479.36081    96679.114     562.5603   -222.16218    856.88844    634.72626    1310.6086   -222.16218            0   -5.4167806            0            0            0            0            0            0 
10132000      419.998    100825.75    572.65151   -229.37233    872.25931    642.88698    1260.4689   -229.37233            0    -5.194006            0            0            0            0            0            0 
10133000    471.78344    98511.828     563.1848   -227.72895    857.83968    630.11073    1307.9191   -227.72895            0   -5.3160068            0            0            0            0            0            0 
10134000    502.85978    97232.466    598.93724   -232.09104    912.29758    680.20653    1393.2797   -232.09104            0   -5.3859535            0            0            0            0            0            0 
10135000    451.67457    98560.642    610.04405   -234.69156    929.21539    694.52383    1343.7635   -234.69156            0   -5.3133739            0            0            0            0            0            0 
10136000    477.19291    97929.131    553.27455   -216.42543    842.74444    626.31901     1307.844   -216.42543            0    -5.347638            0            0            0            0            0            0 
10137000    461.10524    95188.769    562.75495   -240.42336    857.18493    616.76156     1256.882   -240.42336            0   -5.5015896            0            0            0            0            0            0 
10138000    461.57567    98197.562     551.0435   -222.66821    839.34611    616.67791    1277.7054   -222.66821            0   -5.3330198            0            0            0            0            0            0 
10139000    485.67978    95331.108    572.96688   -243.59521    872.73967    629.14446    1304.3882   -243.59521            0   -5.4933752            0            0            0            0            0            0 
10140000    495.61041    93697.857    579.90666   -243.43763    883.31031    639.87267    1317.1179   -243.43763            0   -5.5891304            0            0            0            0            0            0 
10141000    576.43254    101728.88    609.21353   -185.32341    927.95036    742.62695    1597.8288   -185.32341            0   -5.1478945            0            0            0            0            0            0 
10142000    494.97397    101413.99      600.237   -216.16813    914.27735    698.10923    1430.1852   -216.16813            0   -5.1638785            0            0            0            0            0            0 
10143000    454.62189    100721.03    605.12694   -237.75225    921.72569    683.97344    1351.7734   -237.75225            0   -5.1994064            0            0            0            0            0            0 
10144000    475.31212    100077.71    610.31657   -229.14733     929.6305    700.48317    1394.2158   -229.14733            0   -5.2328289            0            0            0            0            0            0 
10145000    445.48325    95086.958    547.43145   -246.09253    833.84427    587.75174    1205.5237   -246.09253            0   -5.5074803            0            0            0            0            0            0 
10146000    500.28814    93326.977    536.06459   -239.39223    816.53033     577.1381    1258.0694   -239.39223            0   -5.6113416            0            0            0            0            0            0 
10147000    541.80806    101347.26    585.86442   -203.27774    892.38513    689.10739    1489.9245   -203.27774            0   -5.1672788            0            0            0            0            0            0 
10148000     540.8291     99341.71    604.00748   -206.24697    920.02053    713.77356    1497.3251   -206.24697            0   -5.2715978            0            0            0            0            0            0 
10149000    510.37995    97087.634    574.04886   -217.20176    874.38775    657.18599     1379.845   -217.20176            0   -5.3939881            0            0            0            0            0            0 
10150000    436.44151     98383.65    574.42594   -230.72949    874.96211    644.23262    1270.4496   -230.72949            0   -5.3229327            0            0            0            0            0            0 
10151000     468.9924    99603.844    621.20097   -229.71519    946.20954    716.49435     1397.762   -229.71519            0   -5.2577242            0            0            0            0            0            0 
10152000    555.28063    95216.939    569.67626   -216.27202    867.72743     651.4554    1422.5411   -216.27202            0    -5.499962            0            0            0            0            0            0 
10153000     412.4482    98671.846    552.66761   -232.72278    841.81995    609.09717    1202.6216   -232.72278            0   -5.3073857            0            0            0            0            0            0 
10154000    515.71793    92195.282    606.78925   -251.41803     924.2577    672.83967    1366.2604   -251.41803            0   -5.6802206            0            0            0            0            0            0 
10155000     536.4443    97639.036    602.60746   -220.83734    917.88803    697.05068    1460.9287   -220.83734            0   -5.3635264            0            0            0            0            0            0 
10156000    504.82596    103727.97    633.08646   -203.61792    964.31345    760.69553    1524.3791   -203.61792            0   -5.0486823            0            0            0            0            0            0 
10157000    572.89432    97290.963    557.62841   -197.09551    849.37621    652.28071    1465.1541   -197.09551            0   -5.3827152            0            0            0            0            0            0 
10158000    517.93551    97766.914     571.6035   -216.80568    870.66298     653.8573    1392.3454   -216.80568            0    -5.356511            0            0            0            0            0            0 
10159000    481.01966    107140.49    573.26516   -194.22675    873.19401    678.96726    1430.5769   -194.22675            0   -4.8878771            0            0            0            0            0            0 
10160000    422.67539    99069.152    578.85414   -231.89315    881.70712    649.81397    1260.5047   -231.89315            0    -5.286101            0            0            0            0            0            0 
10161000    492.55614    95697.545    537.07745   -223.36603    818.07312    594.70709    1282.1433   -223.36603            0   -5.4723404            0            0            0            0            0            0 
10162000    482.29511    96924.411    553.88521   -221.79927    843.67459    621.87531    1303.6202   -221.79927            0   -5.4030717            0            0            0            0            0            0 
10163000    514.42535    101260.49    588.39606   -205.06049    896.24131    691.18082    1450.8741   -205.06049            0   -5.1717067            0            0            0            0            0            0 
10164000    472.99494    97751.104    621.71897    -228.1521    946.99856    718.84646    1393.1479    -228.1521            0   -5.3573773            0            0            0            0            0            0 
10165000    562.46774    95827.889    609.31493   -222.35505    928.10481    705.74976    1491.8274   -222.35505            0    -5.464897            0            0            0            0            0            0 
10166000    498.25995    98655.391     540.2478   -214.65929    822.90217    608.24288    1325.1332   -214.65929            0   -5.3082709            0            0            0            0            0            0 
10167000    426.39824    100073.61    575.76467   -220.80008    877.00126    656.20117     1278.517   -220.80008            0   -5.2330435            0            0            0            0            0            0 
10168000    519.47078    94163.488    550.42141   -218.09635    838.39856    620.30221    1333.6799   -218.09635            0   -5.5614926            0            0            0            0            0            0 
10169000    479.47536    92691.316    543.06409   -238.85487    827.19192    588.33706    1236.4956   -238.85487            0   -5.6498232            0            0            0            0            0            0 
10170000     498.3945    98488.504    590.60481   -215.20178    899.60567    684.40389    1400.2747   -215.20178            0   -5.3172657            0            0            0            0            0            0 
10171000    450.20126     104189.3    596.24702   -216.79589    908.19985    691.40396    1375.4821   -216.79589            0   -5.0263276            0            0            0            0            0            0 
10172000    461.35612    104036.08     597.7477    -214.7043    910.48566    695.78136    1395.7783    -214.7043            0     -5.03373            0            0            0            0            0            0 
10173000    469.48979    94296.766    556.47179   -247.09151    847.61445    600.52294    1246.1754   -247.09151            0   -5.5536321            0            0            0            0            0            0 
10174000    459.15091    100122.04    590.48484   -219.85689    899.42292    679.56603    1350.0078   -219.85689            0    -5.230512            0            0            0            0            0            0 
10175000    437.80223    100576.63    539.33006   -219.76488    821.50427     601.7394    1243.9107   -219.76488            0   -5.2068712            0            0            0            0            0            0 
10176000    503.51198    97375.752     575.2844   -231.93172    876.26971    644.33799    1359.3882   -231.93172            0   -5.3780283            0            0            0            0            0            0 
10177000    501.02441    102201.64    573.72856   -209.83706    873.89986     664.0628    1410.8427   -209.83706            0   -5.1240818            0            0            0            0            0            0 
10178000    512.51039    95517.667    588.88085   -214.93424    896.97974     682.0455    1395.9864   -214.93424            0   -5.4826459            0            0            0            0            0            0 
10179000    494.42815     98627.18    591.06076   -222.31502    900.30017    677.98515    1389.1589   -222.31502            0   -5.3097893            0            0            0            0            0            0 
10180000    525.30811    99298.652    576.79705   -210.14598    878.57377    668.42779    1429.1627   -210.14598            0   -5.2738837            0            0            0            0            0            0 
10181000    512.03727    100925.92    540.53656   -198.21353      823.342    625.12848    1378.7967   -198.21353            0   -5.1888507            0            0            0            0            0            0 
10182000    520.21031    94469.771    586.88677   -231.03948    893.94236    662.90288    1379.6199   -231.03948            0   -5.5434616            0            0            0            0            0            0 
10183000    464.19065    99752.381    599.15172   -214.34064    912.62426    698.28362    1373.5818   -214.34064            0   -5.2498952            0            0            0            0            0            0 
10184000     512.3443    95972.496     567.5592   -224.59226    864.50273    639.91047    1357.0185   -224.59226            0   -5.4566628            0            0            0            0            0            0 
10185000    415.31132    109540.71    580.59735   -198.75804    884.36236    685.60432    1349.0803   -198.75804            0   -4.7807756            0            0            0            0            0            0 
10186000    527.18217     98169.08    550.59352   -204.21081    838.66071    634.44991    1389.2142   -204.21081            0   -5.3345671            0            0            0            0            0            0 
10187000     495.0525    96835.256    602.50528   -236.12056    917.73239    681.61183    1380.7462   -236.12056            0   -5.4080463            0            0            0            0            0            0 
10188000    483.99146    94599.708    590.71849   -238.89405    899.77882    660.88476    1328.6186   -238.89405            0   -5.5358474            0            0            0            0            0            0 
10189000    521.89465    95672.489    584.07214   -219.77653    889.65514    669.87862    1398.0705   -219.77653            0   -5.4737736            0            0            0            0            0            0 
10190000    451.64175    101290.22    578.70755   -221.04069    881.48383    660.44314    1327.6146   -221.04069            0   -5.1701886            0            0            0            0            0            0 
10191000     544.5876    92543.652    544.65252   -228.41739    829.61141    601.19402     1336.199   -228.41739            0   -5.6588381            0            0            0            0            0            0 
10192000     521.0827    96515.219    589.20321   -216.52207    897.47075    680.94868    1414.4119   -216.52207            0   -5.4259789            0            0            0            0            0            0 
10193000    576.25689    98144.106    598.55358   -215.55474    911.71318    696.15844    1520.9729   -215.55474            0   -5.3359246            0            0            0            0            0            0 
10194000    548.15355    99539.425    583.77574   -201.21878    889.20367    687.98489    1483.7287   -201.21878            0   -5.2611269            0            0            0            0            0            0 
10195000    488.46183    95790.512    528.21894   -222.73959    804.57989     581.8403    1264.2246   -222.73959            0   -5.4670294            0            0            0            0            0            0 
10196000    471.15141    96208.598    591.38509    -231.8428    900.79418    668.95138    1330.0257    -231.8428            0   -5.4432718            0            0            0            0            0            0 
10197000    552.00815    98521.696    613.84584   -211.09316    935.00626    723.91309    1517.0593   -211.09316            0   -5.3154743            0            0            0            0            0            0 
10198000    504.60405    90551.917    589.41561   -256.10112    897.79428    641.69316    1308.0767   -256.10112            0   -5.7833071            0            0            0            0            0            0 
10199000     473.9375    100878.57    567.54216   -217.46373    864.47678    647.01305    1344.2749   -217.46373            0   -5.1912865            0            0            0            0            0            0 
10200000     463.5905    99929.818    561.25995   -218.96574    854.90775      635.942    1311.5667   -218.96574            0   -5.2405734            0            0            0            0            0            0 
10201000    516.93114    100263.81    619.87289   -219.31321    944.18662    724.87342    1480.7533   -219.31321            0   -5.2231163            0            0            0            0            0            0 
10202000    502.66193    95404.712     558.1208   -221.33554    850.12621    628.79067    1328.1844   -221.33554            0   -5.4891371            0            0            0            0            0            0 
10203000    498.90092     91248.52    573.54868   -242.28248    873.62587    631.34339    1295.2638   -242.28248            0   -5.7391566            0            0            0            0            0            0 
10204000    420.39997    106387.09    604.70704    -221.2846     921.0861     699.8015    1352.0716    -221.2846            0   -4.9224917            0            0            0            0            0            0 
10205000    439.22382    102818.39    609.49853   -223.48818    928.38446    704.89628    1363.5128   -223.48818            0    -5.093345            0            0            0            0            0            0 
10206000    566.95539    95439.435    609.04756   -214.68513    927.69754    713.01241    1502.1498   -214.68513            0   -5.4871401            0            0            0            0            0            0 
10207000    532.60531    95346.694    609.78387   -224.86081    928.81909    703.95828    1444.5639   -224.86081            0   -5.4924773            0            0            0            0            0            0 
10208000    528.06552    100642.28    589.79475   -203.42043    898.37179    694.95137    1470.0271   -203.42043            0   -5.2034747            0            0            0            0            0            0 
10209000    429.83073    101593.25     587.9676   -228.23357    895.58869    667.35512    1304.2067   -228.23357            0   -5.1547672            0            0            0            0            0            0 
10210000    518.83529    93938.794    552.19768   -237.70124    841.10416    603.40292    1314.2078   -237.70124            0   -5.5747953            0            0            0            0            0            0 
10211000    497.76205    97918.086    582.24654   -227.48678     886.8744    659.38762    1370.2092   -227.48678            0   -5.3482413            0            0            0            0            0            0 
10212000    513.45037    102075.78    623.12715   -205.02318    949.14349    744.12031    1508.4788   -205.02318            0   -5.1303995            0            0            0            0            0            0 
10213000    587.19457    91318.103    585.12661   -229.91108     891.2613    661.35022    1443.3647   -229.91108            0   -5.7347834            0            0            0            0            0            0 
10214000    416.05506    99815.072    571.10577   -231.29337    869.90485    638.61148     1244.263   -231.29337            0   -5.2465979            0            0            0            0            0            0 
10215000    550.02949    95412.041    575.94139   -219.05862    877.27044    658.21182    1423.5706   -219.05862            0   -5.4887155            0            0            0            0            0            0 
10216000    414.34687    101005.25    573.36187   -233.42992    873.34133    639.91141    1250.2684   -233.42992            0   -5.1847752            0            0            0            0            0            0 
10217000    547.35408     93220.22    601.82477   -223.89004    916.69584     692.8058    1436.9453   -223.89004            0   -5.6177677            0            0            0            0            0            0 
10218000    496.98095    97187.969    600.27707    -225.9242    914.33839    688.41419    1392.8285    -225.9242            0   -5.3884195            0            0            0            0            0            0 
10219000    590.38018    97150.077    581.97979   -204.81831    886.46808    681.64977    1518.1206   -204.81831            0   -5.3905211            0            0            0            0            0            0 
10220000    479.28066    99819.103    545.41504   -209.76213    830.77289    621.01076     1318.728   -209.76213            0    -5.246386            0            0            0            0            0            0 
10221000    535.63653    99487.393    560.16128   -198.79972    853.23426    654.43454    1431.6011   -198.79972            0   -5.2638784            0            0            0            0            0            0 
10222000    425.37105    97803.998    555.26761   -232.89634    845.78026    612.88392    1219.6208   -232.89634            0   -5.3544799            0            0            0            0            0            0 
10223000    498.90353    97550.389    566.71548   -213.90325    863.21758    649.31433    1359.0906   -213.90325            0   -5.3684004            0            0            0            0            0            0 
10224000     479.0289     102238.7    580.05742   -216.08599    883.53995    667.45396    1381.7084   -216.08599            0   -5.1222242            0            0            0            0            0            0 
10225000    519.37038    96216.599    584.94297   -223.65794    890.98158    667.32364    1396.1147   -223.65794            0   -5.4428191            0            0            0            0            0            0 
10226000    435.91569    100051.11    588.99732   -224.12072    897.15715    673.03643    1309.0997   -224.12072            0   -5.2342203            0            0            0            0            0            0 
10227000    390.06185    105756.46    547.52101   -215.09663    833.98068    618.88405    1220.4958   -215.09663            0   -4.9518443            0            0            0            0            0            0 
10228000    500.99371    96310.004    559.17867   -226.23484    851.73755    625.50272    1329.1898   -226.23484            0   -5.4375405            0            0            0            0            0            0 
10229000    500.56943    99265.177    575.97546   -210.98612    877.32232    666.33621     1391.001   -210.98612            0   -5.2756622            0            0            0            0            0            0 
10230000    460.34387    96471.676    580.30122   -237.05413     883.9113    646.85716    1294.5336   -237.05413            0    -5.428428            0            0            0            0            0            0 
10231000    466.50861    93200.546    540.59219   -233.18505    823.42675     590.2417    1224.3362   -233.18505            0   -5.6189536            0            0            0            0            0            0 
10232000    500.08872    101717.16    580.50643   -204.05724    884.22388    680.16664    1422.0185   -204.05724            0   -5.1484875            0            0            0            0            0            0 
10233000    447.08206    99675.447    590.28553   -229.87616    899.11935    669.24318    1319.1503   -229.87616            0   -5.2539473            0            0            0            0            0            0 
10234000    469.24641    97907.358    580.04962   -224.52914    883.52807    658.99893    1329.0257   -224.52914            0   -5.3488273            0            0            0            0            0            0 
10235000    410.92621    102060.62    556.80428   -215.00028    848.12091    633.12063    1244.7635   -215.00028            0   -5.1311616            0            0            0            0            0            0 
10236000    460.63034    99289.169    572.77033   -230.79813    872.44029    641.64217     1308.649   -230.79813            0   -5.2743874            0            0            0            0            0            0 
10237000    484.89026    97351.493     564.5906   -223.62394    859.98097    636.35703    1324.7905   -223.62394            0   -5.3793684            0            0            0            0            0            0 
10238000     420.8365    107346.63    597.38709   -204.37579    909.93639    705.56061    1364.3972   -204.37579            0   -4.8784907            0            0            0            0            0            0 
10239000    515.24861    93671.576    554.56643   -225.77221    844.71222    618.94001    1322.8231   -225.77221            0   -5.5906985            0            0            0            0            0            0 
10240000    465.09422    97977.936    582.95233   -234.47264    887.94945    653.47681    1318.0535   -234.47264            0   -5.3449742            0            0            0            0            0            0 
10241000    534.80316    102430.47    588.33502   -202.04573    896.14833    694.10261    1493.0147   -202.04573            0   -5.1126344            0            0            0            0            0            0 
10242000     584.6209    93905.166    629.75815   -221.24182     959.2438    738.00198    1538.6465   -221.24182            0   -5.5767916            0            0            0            0            0            0 
10243000    530.24573    96763.947    581.03379    -223.5798    885.02715    661.44735    1409.7317    -223.5798            0   -5.4120316            0            0            0            0            0            0 
10244000    431.87757    102922.13    583.84091   -216.97452    889.30293    672.32841    1320.5826   -216.97452            0   -5.0882112            0            0            0            0            0            0 
10245000    595.62537    96793.097    643.63183   -212.28929     980.3761    768.08681    1608.8883   -212.28929            0   -5.4104018            0            0            0            0            0            0 
10246000    530.36432    96226.043    594.47501   -225.66466    905.50073    679.83607    1424.1272   -225.66466            0   -5.4422849            0            0            0            0            0            0 
10247000    673.28726    93015.367    598.00613   -209.32186    910.87932    701.55746    1614.8943   -209.32186            0   -5.6301401            0            0            0            0            0            0 
10248000    479.64116    100999.26    602.06956    -211.8503    917.06871     705.2184    1411.7157    -211.8503            0   -5.1850829            0            0            0            0            0            0 
10249000    532.20307    96309.655    616.86422   -228.87689    939.60384    710.72695    1458.2474   -228.87689            0   -5.4375602            0            0            0            0            0            0 
10250000    489.21263    99405.589    577.98287   -211.81686    880.38001    668.56315    1377.7887   -211.81686            0   -5.2682103            0            0            0            0            0            0 
10251000    434.64207    91659.793    564.38742   -253.15268     859.6715    606.51882    1187.5327   -253.15268            0   -5.7134053            0            0            0            0            0            0 
10252000     494.8393    99963.464    602.26227    -212.9455    917.36224    704.41673    1425.8254    -212.9455            0   -5.2388095            0            0            0            0            0            0 
10253000    493.80088    99612.876    626.83065   -219.98201    954.78465    734.80264    1452.1727   -219.98201            0   -5.2572475            0            0            0            0            0            0 
10254000    483.55296    99054.592    564.85564   -210.63707    860.38469    649.74762    1348.2929   -210.63707            0    -5.286878            0            0            0            0            0            0 
10255000    518.23572    97277.614    608.00163   -223.09237    926.10439    703.01203      1438.23   -223.09237            0   -5.3834539            0            0            0            0            0            0 
10256000    556.03876    89817.541    588.67138   -236.20659    896.66067    660.45408    1388.8074   -236.20659            0   -5.8305932            0            0            0            0            0            0 
10257000     472.2997     101693.1    565.27422   -212.12068    861.02227    648.90158    1349.3643   -212.12068            0   -5.1497057            0            0            0            0            0            0 
10258000    470.33681    101686.95    594.69175   -218.61221    905.83086    687.21866    1384.7281   -218.61221            0   -5.1500174            0            0            0            0            0            0 
10259000    579.96753    93347.283    572.34269   -220.48284    871.78892    651.30608     1440.859   -220.48284            0   -5.6101209            0            0            0            0            0            0 
10260000    435.73897    102868.29    564.22021   -217.09423     859.4168    642.32258    1296.0306   -217.09423            0   -5.0908746            0            0            0            0            0            0 
10261000    508.28701    97481.989    576.58737   -216.96536    878.25439    661.28904    1383.9079   -216.96536            0   -5.3721672            0            0            0            0            0            0 
10262000    525.36991    99391.756    569.14845      -205.88    866.92346    661.04346    1422.5812      -205.88            0   -5.2689435            0            0            0            0            0            0 
10263000    496.79878    97728.416    577.61426   -214.35715    879.81853    665.46139    1373.5331   -214.35715            0    -5.358621            0            0            0            0            0            0 
10264000    566.96213    92146.608    611.00816   -226.91062    930.68392     703.7733    1465.6932   -226.91062            0   -5.6832211            0            0            0            0            0            0 
10265000    472.41931    96838.875    613.26853   -231.33025     934.1269    702.79665    1369.9924   -231.33025            0   -5.4078442            0            0            0            0            0            0 
10266000    479.73177    99025.808    575.05023   -215.91985    875.91303    659.99318    1352.8169   -215.91985            0   -5.2884148            0            0            0            0            0            0 
10267000    446.73057    104713.46    559.54759   -210.78292    852.29949    641.51657     1323.736   -210.78292            0   -5.0011675            0            0            0            0            0            0 
10268000    507.93501    97519.925    581.11178   -214.67187    885.14595    670.47408    1392.8735   -214.67187            0   -5.3700774            0            0            0            0            0            0 
10269000     548.9451    97487.406    606.56949   -211.31521    923.92296    712.60775    1493.0725   -211.31521            0   -5.3718687            0            0            0            0            0            0 
10270000    485.30387    100408.76     545.8947   -209.10296     831.5035    622.40054    1333.0595   -209.10296            0   -5.2155762            0            0            0            0            0            0 
10271000    522.39365    95035.698    578.26868   -227.36125    880.81534     653.4541    1377.4907   -227.36125            0   -5.5104509            0            0            0            0            0            0 
10272000    456.46114    101512.89    607.78524   -221.26432    925.77479    704.51047    1380.2836   -221.26432            0   -5.1588478            0            0            0            0            0            0 
10273000    575.97837    95849.751     597.9909   -224.27469    910.85611    686.58142    1491.7245   -224.27469            0   -5.4636506            0            0            0            0            0            0 
10274000    551.03585    95108.602    585.70145   -217.76293     892.1369    674.37397    1438.6945   -217.76293            0   -5.5062269            0            0            0            0            0            0 
10275000    487.54317    99662.528     595.0214   -217.75497    906.33298    688.57802    1397.2102   -217.75497            0   -5.2546284            0            0            0            0            0            0 
10276000    482.19443    95683.711    585.98737   -236.47158     892.5724    656.10083    1328.9784   -236.47158            0   -5.4731317            0            0            0            0            0            0 
10277000     480.4145      97307.2     569.5921    -222.9702    867.59923    644.62903    1326.3976    -222.9702            0    -5.381817            0            0            0            0            0            0 
10278000    497.56639    98642.793    602.61111   -219.47517    917.89359    698.41841    1414.2194   -219.47517            0   -5.3089489            0            0            0            0            0            0 
10279000     569.5245    93020.556    575.84041    -222.0599    877.11662    655.05672     1427.679    -222.0599            0    -5.629826            0            0            0            0            0            0 
10280000    455.44104    100307.37    561.07326   -220.52531    854.62339    634.09807    1300.3537   -220.52531            0   -5.2208482            0            0            0            0            0            0 
10281000    414.48329    100227.13    549.30394   -229.18056    836.69644    607.51588    1213.3702   -229.18056            0   -5.2250281            0            0            0            0            0            0 
10282000    437.58341      99057.6    599.49946   -233.46688    913.15394    679.68706    1311.8435   -233.46688            0   -5.2867175            0            0            0            0            0            0 
10283000    558.47394    95983.809    572.14312   -211.76609    871.48494    659.71885    1441.4849   -211.76609            0   -5.4560196            0            0            0            0            0            0 
10284000    388.69824    103235.49    551.07352   -227.62124    839.39184     611.7706    1196.9883   -227.62124            0   -5.0727666            0            0            0            0            0            0 
10285000    542.19655    94131.454    579.30452   -229.79336    882.39313    652.59977     1396.933   -229.79336            0   -5.5633853            0            0            0            0            0            0 
10286000    630.29957    96791.131    602.43269   -197.17732    917.62181     720.4445     1610.175   -197.17732            0   -5.4105117            0            0            0            0            0            0 
10287000    495.29898    100197.46    564.61532   -210.85856    860.01863    649.16007    1372.9291   -210.85856            0   -5.2265753            0            0            0            0            0            0 
10288000    507.61824    97506.604    586.27891   -223.62976    893.01648    669.38672     1391.237   -223.62976            0    -5.370811            0            0            0            0            0            0 
10289000    545.84334    95608.362    609.09613   -234.31705    927.77153    693.45448    1454.5511   -234.31705            0    -5.477445            0            0            0            0            0            0 
10290000    554.33114    98742.693     582.7676   -205.87032    887.66808    681.79775    1480.0684   -205.87032            0   -5.3035777            0            0            0            0            0            0 
10291000     551.2476    91287.933     605.3754   -231.56835    922.10414    690.53579    1424.4343   -231.56835            0   -5.7366787            0            0            0            0            0            0 
10292000    401.61344    102528.58    565.22733   -223.19777    860.95084    637.75306    1238.2753   -223.19777            0   -5.1077421            0            0            0            0            0            0 
10293000    486.63409    96285.949    566.69041   -234.27992     863.1794    628.89948    1312.2466   -234.27992            0   -5.4388989            0            0            0            0            0            0 
10294000    510.46244    98085.264    554.07044   -216.11823    843.95673     627.8385    1358.0412   -216.11823            0   -5.3391256            0            0            0            0            0            0 
10295000    495.29676    101984.99    625.22329   -223.43427    952.33633    728.90206      1465.58   -223.43427            0   -5.1349669            0            0            0            0            0            0 
10296000    566.37042    96141.559    552.25885   -211.78286    841.19732    629.41447    1423.5372   -211.78286            0   -5.4470673            0            0            0            0            0            0 
10297000    434.54476    95850.481    555.76793   -234.89112    846.54234    611.65122    1219.0931   -234.89112            0   -5.4636089            0            0            0            0            0            0 
10298000    473.74549    100759.67    546.32906   -209.17922    832.16511    622.98589    1319.1438   -209.17922            0   -5.1974121            0            0            0            0            0            0 
10299000    482.75591    100027.78    593.89051   -221.09933    904.61043     683.5111    1387.7567   -221.09933            0   -5.2354409            0            0            0            0            0            0 
10300000    490.95252    92172.464    618.32291   -249.15588    941.82571    692.66984    1352.6283   -249.15588            0   -5.6816269            0            0            0            0            0            0 
10301000    500.26054     101331.1    587.70963   -214.72237    895.19574    680.47337    1419.7635   -214.72237            0    -5.168103            0            0            0            0            0            0 
10302000    471.52469    103010.12    595.65771   -218.12845    907.30221    689.17377    1397.5439   -218.12845            0   -5.0838649            0            0            0            0            0            0 
10303000      459.507    95672.286    578.98822   -239.14048    881.91135    642.77087    1283.9128   -239.14048            0   -5.4737852            0            0            0            0            0            0 
10304000    430.43651    97021.241    564.59752   -237.76366    859.99152    622.22786    1231.2763   -237.76366            0   -5.3976793            0            0            0            0            0            0 
10305000     617.8021    96011.978    581.59013    -214.6511    885.87456    671.22347    1536.2923    -214.6511            0   -5.4544189            0            0            0            0            0            0 
10306000    426.11289    106251.79    560.62139   -211.73471     853.9351    642.20039    1302.4936   -211.73471            0   -4.9287598            0            0            0            0            0            0 
10307000    528.26428    93341.103    580.65354   -244.54077    884.44795    639.90719     1359.025   -244.54077            0   -5.6104923            0            0            0            0            0            0 
10308000    498.19742    97687.258    576.18725   -215.07687    877.64493    662.56807    1372.3342   -215.07687            0   -5.3608787            0            0            0            0            0            0 
10309000    520.18022    99253.418    585.60059   -203.84791    891.98326    688.13535    1441.1011   -203.84791            0   -5.2762873            0            0            0            0            0            0 
10310000    513.92085    98792.372    568.68918   -213.76339    866.22392    652.46052    1392.9102   -213.76339            0   -5.3009107            0            0            0            0            0            0 
10311000     421.4584    102612.11    567.09654   -219.34486    863.79801    644.45315    1275.1625   -219.34486            0    -5.103584            0            0            0            0            0            0 
10312000    544.36013    90649.319    591.07364   -249.51719    900.31979     650.8026    1370.4616   -249.51719            0    -5.777093            0            0            0            0            0            0 
10313000    453.84499    96912.083    565.73875   -226.61222    861.72984    635.11761    1276.5655   -226.61222            0   -5.4037591            0            0            0            0            0            0 
10314000    485.12804    96869.568    619.61854   -230.85824    943.79921    712.94097    1398.3023   -230.85824            0   -5.4061307            0            0            0            0            0            0 
10315000    516.73962    98087.526    575.90512   -219.72005    877.21519    657.49513    1396.6942   -219.72005            0   -5.3390025            0            0            0            0            0            0 
10316000    407.15707    101279.93     549.0008   -227.64823    836.23468    608.58646    1209.9835   -227.64823            0   -5.1707137            0            0            0            0            0            0 
10317000    480.04633    93315.046    555.74019   -241.22042    846.50008    605.27966    1258.5767   -241.22042            0    -5.612059            0            0            0            0            0            0 
10318000    428.51767    99767.723    589.74393   -231.13887    898.29437     667.1555     1290.653   -231.13887            0   -5.2490879            0            0            0            0            0            0 
10319000    527.89571    92333.411    607.74483   -246.03139    925.71324    679.68185    1390.5399   -246.03139            0   -5.6717231            0            0            0            0            0            0 
10320000    474.81151    100558.88    564.38639   -213.13898    859.66993    646.53095    1342.8649   -213.13898            0     -5.20779            0            0            0            0            0            0 
10321000    458.76767    98115.439    575.87455   -230.61866    877.16863    646.54996    1303.0066   -230.61866            0   -5.3374836            0            0            0            0            0            0 
10322000    513.99867    97989.584    615.74178   -221.71577    937.89414    716.17836    1450.7223   -221.71577            0   -5.3443389            0            0            0            0            0            0 
10323000    492.25412    98302.911    590.98913   -224.42667    900.19107     675.7644    1381.4831   -224.42667            0   -5.3273046            0            0            0            0            0            0 
10324000    477.90145    95258.658    578.80761   -233.07523    881.63624    648.56101    1312.4855   -233.07523            0   -5.4975533            0            0            0            0            0            0 
10325000    406.45225    104168.81    544.77361   -210.89459    829.79586    618.90127    1236.3816   -210.89459            0   -5.0273162            0            0            0            0            0            0 
10326000    472.10805    98264.686     569.3855   -233.70521    867.28455    633.57933    1310.1525   -233.70521            0   -5.3293769            0            0            0            0            0            0 
10327000    519.09641    96161.497    617.55133   -231.71516    940.65043    708.93527    1436.9248   -231.71516            0   -5.4459379            0            0            0            0            0            0 
10328000    487.99346    103378.09    599.08446   -213.00518    912.52182    699.51665    1435.2466   -213.00518            0    -5.065769            0            0            0            0            0            0 
10329000    601.80349    94632.684    622.08747   -217.36789    947.55987    730.19197    1560.7534   -217.36789            0   -5.5339183            0            0            0            0            0            0 
10330000    526.40035    97057.146    570.35302   -219.91618    868.75827    648.84208    1393.9507   -219.91618            0   -5.3956825            0            0            0            0            0            0 
10331000    479.97761    99064.452    586.36569   -221.78581    893.14867    671.36286    1364.8121   -221.78581            0   -5.2863518            0            0            0            0            0            0 
10332000    514.11096    98145.562    590.24703   -219.97526     899.0607    679.08544    1414.9594   -219.97526            0   -5.3358454            0            0            0            0            0            0 
10333000    576.24067    89747.291    595.12779   -240.42219    906.49503    666.07284    1420.2982   -240.42219            0   -5.8351571            0            0            0            0            0            0 
10334000     410.7693    102494.74    533.07717   -214.79845    811.97991    597.18146    1211.1915   -214.79845            0   -5.1094285            0            0            0            0            0            0 
10335000    474.27625    97202.357    614.88372   -230.70221    936.58715    705.88494    1378.2174   -230.70221            0   -5.3876219            0            0            0            0            0            0 
10336000    493.56868    95150.482      576.975   -230.76386    878.84483    648.08097    1332.9925   -230.76386            0   -5.5038034            0            0            0            0            0            0 
10337000    418.25727    101244.43    588.21455   -230.95679    895.96483    665.00804    1282.5842   -230.95679            0   -5.1725269            0            0            0            0            0            0 
10338000     479.5589    100669.95    589.29187   -221.99824     897.6058    675.60756    1379.6806   -221.99824            0   -5.2020442            0            0            0            0            0            0 
10339000    566.92547    87803.052    591.26288   -241.84775    900.60804    658.76029    1384.7182   -241.84775            0   -5.9643661            0            0            0            0            0            0 
10340000    492.14692    97285.308    605.06214   -228.79094    921.62698    692.83604    1391.0973   -228.79094            0   -5.3830281            0            0            0            0            0            0 
10341000    464.45997    100912.59    548.77658    -219.9178    835.89315    615.97535    1299.5242    -219.9178            0    -5.189536            0            0            0            0            0            0 
10342000    502.84796    97851.134    594.02842   -226.71124    904.82049    678.10925    1395.7027   -226.71124            0   -5.3519006            0            0            0            0            0            0 
10343000      535.618    95352.972    590.42763   -227.29049    899.33579     672.0453    1416.8892   -227.29049            0   -5.4921156            0            0            0            0            0            0 
10344000    506.17935    102263.36    614.93228    -210.7096    936.66112    725.95151    1480.8705    -210.7096            0   -5.1209893            0            0            0            0            0            0 
10345000    473.98527    96033.332    580.73598   -230.16537    884.57353    654.40816    1318.2471   -230.16537            0   -5.4532061            0            0            0            0            0            0 
10346000    536.77915    89932.341    579.21539   -250.46878    882.25737    631.78859    1335.8125   -250.46878            0   -5.8231504            0            0            0            0            0            0 
10347000    499.55387    101098.66    595.20697   -216.25053    906.61565    690.36512    1426.9175   -216.25053            0   -5.1799848            0            0            0            0            0            0 
10348000    510.68912    101056.46    582.37188   -208.93033    887.06532    678.13499    1430.7911   -208.93033            0   -5.1821481            0            0            0            0            0            0 
10349000    496.98848     95695.42    568.94359   -227.72377    866.61143    638.88766    1332.4945   -227.72377            0   -5.4724619            0            0            0            0            0            0 
10350000    460.93491    92476.029    583.21528   -244.71389    888.34998    643.63609    1265.2843   -244.71389            0   -5.6629762            0            0            0            0            0            0 
10351000    529.78905    95434.193    597.66863   -226.92346    910.36524    683.44178    1420.8074   -226.92346            0   -5.4874414            0            0            0            0            0            0 
10352000    508.35242    104894.61    594.51111   -193.90757    905.55572    711.64815    1489.3157   -193.90757            0   -4.9925305            0            0            0            0            0            0 
10353000    498.97094    98163.263    554.88332   -217.16476    845.19491    628.03016    1342.3622   -217.16476            0   -5.3348833            0            0            0            0            0            0 
[...]
14939000    537.20198    96662.253    581.25037   -215.85366    885.35704    669.50338    1426.8077   -215.85366            0   -5.4177254            0            0            0            0            0            0 
14940000    576.13486    99040.899    612.47539   -199.08686    932.91879    733.83194    1566.0068   -199.08686            0   -5.2876089            0            0            0            0            0            0 
14941000    467.76939    98627.471    600.00474   -233.69096    913.92358    680.23262     1353.063   -233.69096            0   -5.3097736            0            0            0            0            0            0 
14942000    486.26085    96834.612    579.80299   -226.45537    883.15239    656.69702    1343.4109   -226.45537            0   -5.4080822            0            0            0            0            0            0 
14943000    418.66004    101305.76    556.26081   -226.73084    847.29309    620.56225    1239.1076   -226.73084            0   -5.1693957            0            0            0            0            0            0 
14944000    466.48424    96727.853    571.72188   -225.12969    870.84331    645.71361     1303.772   -225.12969            0   -5.4140512            0            0            0            0            0            0 
14945000    469.03807    101874.25    630.78075   -215.37157    960.80141    745.42984    1442.2944   -215.37157            0   -5.1405489            0            0            0            0            0            0 
14946000    543.94681    100524.03    593.46796   -206.49366    903.96679    697.47313    1494.9208   -206.49366            0   -5.2095955            0            0            0            0            0            0 
14947000    535.38161    93608.309    607.45318   -241.29162      925.269    683.97738    1414.8703   -241.29162            0   -5.5944772            0            0            0            0            0            0 
14948000    432.37582    100315.97    561.85338   -219.22735    855.81167    636.58432    1269.1525   -219.22735            0   -5.2204006            0            0            0            0            0            0 
14949000    470.59389    99770.411    607.12856   -226.28764    924.77454    698.48691    1383.2241   -226.28764            0   -5.2489465            0            0            0            0            0            0 
14950000    518.19088    94594.192    582.31097     -231.828    886.97254    655.14454    1370.0196     -231.828            0   -5.5361702            0            0            0            0            0            0 
14951000    463.28145    105775.47    564.77247   -193.09858      860.258    667.15942    1381.8297   -193.09858            0   -4.9509548            0            0            0            0            0            0 
14952000    513.51286    99969.011    601.68162   -207.10498    916.47779    709.37282    1458.0466   -207.10498            0   -5.2385188            0            0            0            0            0            0 
14953000     507.6637    93639.062    586.99599   -229.60649    894.10873    664.50224    1357.7829   -229.60649            0   -5.5926398            0            0            0            0            0            0 
14954000    422.82236    96755.356    533.95321   -233.13439     813.3143     580.1799    1176.8151   -233.13439            0   -5.4125122            0            0            0            0            0            0 
14955000    483.55727    97783.726    564.45577   -224.76551    859.77561     635.0101    1324.5992   -224.76551            0     -5.35559            0            0            0            0            0            0 
14956000    485.78844    100839.73    578.50165   -215.93025     881.1702    665.23996    1379.6618   -215.93025            0   -5.1932861            0            0            0            0            0            0 
14957000     519.5531    99992.225    587.52562   -210.19198    894.91546    684.72348    1442.3795   -210.19198            0   -5.2373027            0            0            0            0            0            0 
14958000     549.9427    95465.644    571.03544   -215.10964    869.79772    654.68808     1420.356   -215.10964            0   -5.4856336            0            0            0            0            0            0 
14959000    415.85255    103131.34    580.79466   -226.08453     884.6629    658.57837    1284.0475   -226.08453            0   -5.0778896            0            0            0            0            0            0 
14960000    590.49508    94648.374    566.70283   -211.91559    863.19832    651.28273    1466.3723   -211.91559            0    -5.533001            0            0            0            0            0            0 
14961000    541.73914    94988.812    605.00756   -222.07873    921.54385    699.46512    1449.9441   -222.07873            0   -5.5131708            0            0            0            0            0            0 
14962000    653.04237    93910.191    594.61836   -197.08008    905.71909    708.63901    1603.0353   -197.08008            0   -5.5764933            0            0            0            0            0            0 
14963000    509.37273    96949.749    570.34123   -213.22426     868.7403    655.51604    1375.7246   -213.22426            0   -5.4016596            0            0            0            0            0            0 
14964000    521.33028    102133.45    636.79195   -208.23415    969.95764    761.72349     1538.251   -208.23415            0   -5.1275028            0            0            0            0            0            0 
14965000    485.00357    98553.546     575.9448   -222.80897    877.27562    654.46665    1351.5634   -222.80897            0   -5.3137565            0            0            0            0            0            0 
14966000    446.38792    96460.417    566.92489     -237.689    863.53656    625.84756    1253.8155     -237.689            0   -5.4290616            0            0            0            0            0            0 
14967000     431.8958    98212.799    580.59412    -237.5083    884.35744    646.84914    1265.4677    -237.5083            0   -5.3321924            0            0            0            0            0            0 
14968000    474.33412    93501.171    568.63763   -236.90912    866.14539    629.23627    1276.0471   -236.90912            0   -5.6008875            0            0            0            0            0            0 
14969000    451.74413    100443.84    533.85611   -222.30211    813.16639    590.86427    1252.6108   -222.30211            0    -5.213755            0            0            0            0            0            0 
14970000     486.9972    96710.463    572.01079    -231.6319    871.28336    639.65146    1326.5235    -231.6319            0   -5.4150247            0            0            0            0            0            0 
14971000    417.51898    100973.54    574.83225   -224.34663    875.58099    651.23436    1266.0709   -224.34663            0   -5.1864039            0            0            0            0            0            0 
14972000    522.29479    96545.644    590.14511   -219.13201    898.90545    679.77343    1415.1745   -219.13201            0    -5.424269            0            0            0            0            0            0 
14973000    570.99687    90827.631    593.82554   -236.19324    904.51146    668.31822    1424.6766   -236.19324            0   -5.7657514            0            0            0            0            0            0 
14974000    505.07539    100912.14    555.67566   -208.27424    846.40179    638.12755     1381.447   -208.27424            0   -5.1895595            0            0            0            0            0            0 
14975000    490.53248    98047.823     562.8091      -223.43     857.2674     633.8374     1335.263      -223.43            0   -5.3411644            0            0            0            0            0            0 
14976000    482.00484    92486.323    580.21911   -245.87642    883.78623    637.90981    1288.0467   -245.87642            0   -5.6623458            0            0            0            0            0            0 
14977000    519.26798    95917.262     599.3501    -221.6705    912.92643    691.25593    1417.6365    -221.6705            0    -5.459805            0            0            0            0            0            0 
14978000    461.45199     102943.6    579.65574   -212.37236     882.9281    670.55574     1363.346   -212.37236            0   -5.0871501            0            0            0            0            0            0 
14979000      452.358    103344.02    584.38576    -226.9899    890.13284    663.14294    1344.9218    -226.9899            0   -5.0674394            0            0            0            0            0            0 
14980000    453.90583    98449.416    590.46263   -232.82127     899.3891    666.56783    1318.2784   -232.82127            0   -5.3193768            0            0            0            0            0            0 
14981000      537.182    95604.624    552.50179   -222.95492    841.56737    618.61246    1367.6028   -222.95492            0   -5.4776592            0            0            0            0            0            0 
14982000    566.25137    98280.702    581.11225    -202.1465    885.14665    683.00015    1494.6214    -202.1465            0   -5.3285084            0            0            0            0            0            0 
14983000    498.94931    101206.42    608.39136   -220.86993    926.69803    705.82809    1442.2732   -220.86993            0   -5.1744698            0            0            0            0            0            0 
14984000    625.11673    93192.049    608.20516   -219.36882     926.4144    707.04558    1556.6483   -219.36882            0    -5.619466            0            0            0            0            0            0 
14985000     500.9446    100301.48    588.79062   -212.84002     896.8423    684.00228    1416.7812   -212.84002            0   -5.2211546            0            0            0            0            0            0 
14986000    449.62829    99521.637    565.83154    -236.4978    861.87116    625.37337    1277.9733    -236.4978            0   -5.2620672            0            0            0            0            0            0 
14987000    400.80863    97875.964    572.60152   -238.89539    872.18316    633.28778    1205.4103   -238.89539            0   -5.3505429            0            0            0            0            0            0 
14988000    525.30051    92930.993    592.76865   -231.16431    902.90161     671.7373    1383.6788   -231.16431            0   -5.6352518            0            0            0            0            0            0 
14989000    425.57773    103048.27    597.05623      -223.69    909.43243    685.74243    1325.3233      -223.69            0    -5.081983            0            0            0            0            0            0 
14990000    424.61701    99897.726    582.80312   -224.92115    887.72218    662.80104     1281.428   -224.92115            0   -5.2422569            0            0            0            0            0            0 
14991000    437.95022    91680.157    578.03337   -254.98307    880.45693    625.47386      1211.04   -254.98307            0   -5.7121362            0            0            0            0            0            0 
14992000    569.52537    90845.228    604.07224   -242.87201    920.11917    677.24715    1431.8025   -242.87201            0   -5.7646346            0            0            0            0            0            0 
14993000    485.61354    99618.826    552.80255   -214.62602    842.02549    627.39948    1332.9175   -214.62602            0   -5.2569335            0            0            0            0            0            0 
14994000    487.96191    98068.382    579.94174   -232.95731    883.36374    650.40643    1348.3026   -232.95731            0   -5.3400447            0            0            0            0            0            0 
14995000    433.67672    96686.861    572.00635   -241.12875    871.27661    630.14786    1241.6662   -241.12875            0   -5.4163465            0            0            0            0            0            0 
14996000    481.22478    90538.136    578.81267   -256.24536    881.64394    625.39858    1260.8106   -256.24536            0   -5.7841874            0            0            0            0            0            0 
14997000    460.12305    102916.76    586.73563   -217.73127    893.71215    675.98088    1366.5958   -217.73127            0   -5.0884769            0            0            0            0            0            0 
14998000    442.94387    101634.59    579.88172   -220.51906    883.27232    662.75326    1319.3007   -220.51906            0   -5.1526703            0            0            0            0            0            0 
14999000    503.50148    90536.125     568.7613   -248.15703    866.33377    618.17674    1282.9883   -248.15703            0   -5.7843159            0            0            0            0            0            0 
15000000    553.62504    97621.268    579.63215   -204.78846    882.89218    678.10371     1466.303   -204.78846            0   -5.3645026            0            0            0            0            0            0 
Loop time of 1023.55 on 8 procs for 5000000 steps with 512 atoms

Pair  time (%) = 488.942 (47.7691)
Bond  time (%) = 0.441467 (0.0431308)
Neigh time (%) = 26.5063 (2.58963)
Comm  time (%) = 353.609 (34.5472)
Outpt time (%) = 0.229572 (0.0224289)
Other time (%) = 153.825 (15.0285)

Nlocal:    64 ave 76 max 57 min
Histogram: 1 1 2 1 1 0 1 0 0 1
Nghost:    880 ave 911 max 860 min
Histogram: 1 2 1 2 0 0 0 0 1 1
Neighs:    3395.5 ave 4123 max 2853 min
Histogram: 1 1 1 2 1 0 0 0 1 1

Total # of neighbors = 27164
Ave neighs/atom = 53.0547
Ave special neighs/atom = 0
Neighbor list builds = 111840
Dangerous builds = 0

Averages
Group Pressure(MPa) Volume(m3) Temperature(K) PE(J) KE(J) ET(J) ET^2(J) H(J) H^2(J^2) V^2(m6) V*H(m3*J) Hconf(J) Uext*Hconf(J^2) V*Hconf(m3*J) Uext(J)
Block1 49.975501668157185975 9.8140319385275025257e-26 580.61464407762537121 -1.5413445977163148024e-18 6.1444628455011621194e-18 4.6031182477848467391e-18 2.1242187957551435129e-35 9.5000696777856602789e-18 9.0544703819404922366e-35 9.6431575124384934575e-51 9.3231797751399270133e-43 3.3556068322845016262e-18 -5.1502046044506467136e-36 3.2932306885845145605e-43 -1.5413445977163148024e-18
Block2 49.91435057235853634 9.8095781613710102182e-26 580.41958334209562054 -1.543693414536620493e-18 6.1423985788583992273e-18 4.5987051643217833565e-18 2.1207287357020310578e-35 9.4862808251183813425e-18 9.029870277589276752e-35 9.6349016443031778938e-51 9.3051401629387597132e-43 3.3438822462599875079e-18 -5.1408338452396226476e-36 3.2793565074383262996e-43 -1.543693414536620493e-18
Block3 49.8735546065656834 9.8124295875733955008e-26 579.85055044400962743 -1.5415810744308866421e-18 6.1363766820016314659e-18 4.5947956075707303794e-18 2.116837761720299311e-35 9.479898899037532679e-18 9.0160626306708311027e-35 9.6404428464036835652e-51 9.301180640668096861e-43 3.3435222170359077612e-18 -5.1336832329989328584e-36 3.2801142927885281279e-43 -1.5415810744308866421e-18
Block4 49.817346142840847278 9.8155144371044112449e-26 579.30539049053766121 -1.5414670795935313638e-18 6.1306074250372480859e-18 4.5891403454437221147e-18 2.1114287534358604935e-35 9.4721136123402357168e-18 9.0008938308735782671e-35 9.6457113647233894219e-51 9.2981889012972973925e-43 3.3415061873029803124e-18 -5.1278202319091399023e-36 3.2806108281887020267e-43 -1.5414670795935313638e-18
Block5 50.134505132660457605 9.8049756686203542088e-26 580.53461489703181542 -1.5415991674216318803e-18 6.1436159217596985218e-18 4.602016754338070686e-18 2.1232801588126437636e-35 9.5101195677365682131e-18 9.0766410392775843364e-35 9.6249213959071418299e-51 9.3244091064868347819e-43 3.3665036459768720024e-18 -5.1655688607142307223e-36 3.3007953128435034751e-43 -1.5415991674216318803e-18
Ave_blocks 49.94305162451654212 9.8113059586393347397e-26 580.1449566502600419 -1.5419370667397968437e-18 6.1394922906316281922e-18 4.5975552238918309633e-18 2.119298841085195895e-35 9.4896965164036759542e-18 9.0355876320703516837e-35 9.6378269527551777084e-51 9.3104197173061844269e-43 3.3502042257720493027e-18 -5.1436221550625143016e-36 3.2868215259687151369e-43 -1.5419370667397968437e-18
Stdev_blocks 0.10877766786914398744 3.7272685561413654985e-29 0.4978766914408858657 8.8290107238210810786e-22 5.2688730182841830198e-21 5.1107829788704399932e-21 4.6924755655203068909e-38 1.3722407012740703615e-20 2.7053702701759473606e-37 7.3828523661169335404e-54 1.1147638110868588742e-45 9.5407735016819228508e-21 1.3275873965279544401e-38 8.6675294122936526041e-46 8.8290107238210810786e-22






Properties
Group rho(kg/m3) Cp(J/K) Cp_conf(J/K) Cp_id(J/K) Cp2(J/K) kT(1/Pa) aP(1/K) aP2(1/K) Cv(J/K) uJT(K/Pa) sos(m/s) Cv2(J/K) uJT2(K/Pa) sos2(m/s) CvNVT(J/K)
Block1 138.97686746500122013 6.3033470633603413066e-20 -2.325205982908649856e-21 4.3654850589191623852e-20 4.1329644606282973996e-20 1.4789587258359077356e-08 -4.7933069699664148039e-05 6.0042237179449080254e-06 6.3024618460791717366e-20 -1.6002867442621998291e-06 697.55942527355693983 4.1329505709198523877e-20 -2.366296381268510299e-06 697.51161437131963794 1.1492546920397871625e-20
Block2 139.03996620252226535 6.6472573010449794455e-20 -3.4466815698962742106e-21 4.364501317783627961e-20 4.0198331607940005399e-20 1.5417039742569638664e-08 -0.00010983922578723786796 -0.00018649628445838707332 6.64280169973223676e-20 -1.5698153588585883892e-06 683.24313706428813475 4.006988230116916952e-20 -2.7044472402566303836e-06 684.10798267869438405 1.2727436465456633041e-20
Block3 138.99956212122208399 6.2933280581249507266e-20 -3.3703004469259291238e-21 4.3616310682677622531e-20 4.0246010235751692654e-20 1.535911061731406575e-08 -0.00019833070945754309455 -0.00015221393551209913054 6.2787564833344205741e-20 -1.7384887919967456568e-06 685.19410140078377935 4.0160180971716471031e-20 -2.65330343382269529e-06 685.13134308902760949 1.2113230755986228613e-20
Block4 138.95587691890602855 6.2158021199575712015e-20 -1.2975747431365850731e-21 4.3588805801114562326e-20 4.2291231057977978757e-20 1.436701921559590319e-08 0.00018076675694680082286 0.00016504430131659582055 6.2028693635837609476e-20 -1.4137583328553954514e-06 708.48470141150482959 4.2183422054859850026e-20 -2.0990268052778774965e-06 708.65109667987269404 1.1671472977588459232e-20
Block5 139.10523208977443232 6.9639247695627783634e-20 -1.9189794588736965045e-21 4.365081461307005255e-20 4.173183515419635755e-20 1.4208998748901661786e-08 -5.2602648440272677371e-05 -1.1687220518023404143e-05 6.9628162933305494903e-20 -1.4509629266744753326e-06 711.34633185767222585 4.17312879698794921e-20 -2.3654605134558907761e-06 711.29437889141570395 1.1657550107339042225e-20
Ave_blocks 139.01550095948522312 6.4847318624101237272e-20 -2.4717484403482270288e-21 4.3631158972778025766e-20 4.1159410532429802875e-20 1.4828351116548070673e-08 -4.5587779287583393012e-05 -3.5869783090793773514e-05 6.4779411372120283832e-20 -1.5546624309294810165e-06 697.16553940156120461 4.1094855801364697699e-20 -2.4377068748163209337e-06 697.33928314206605137 1.1932447445353647248e-20
Stdev_blocks 0.05282394066340378308 2.8209907070588797798e-21 8.3229831497506243584e-22 2.5115090086381527411e-23 8.2409223884556815326e-22 4.9521451127921912108e-10 0.00012549879357542258933 0.00012564155587140542268 2.8580234803068810668e-21 1.1550833065363262463e-07 11.545753020207634165 8.4489889169016585745e-22 2.2029774562248592229e-07 11.373940682373879341 4.4763351943677942575e-22






