LAMMPS (28 Oct 2012)
Scanning data file ...
Reading data file ...
  orthogonal box = (0 0 0) to (100 100 100)
  2 by 2 by 2 MPI processor grid
  512 atoms
Finding 1-2 1-3 1-4 neighbors ...
  0 = max # of 1-2 neighbors
  0 = max # of 1-3 neighbors
  0 = max # of 1-4 neighbors
  1 = max # of special neighbors
WARNING: Resetting reneighboring criteria during minimization (min.cpp:173)
Setting up minimization ...
Memory usage per processor = 4.05499 Mbytes
Step Temp E_pair E_mol TotEng Press 
       0       480.15    1409.7233            0    2141.0849    445.94867 
     701       480.15   -217.27527            0     514.0863    33.203768 
Loop time of 0.055306 on 8 procs for 701 steps with 512 atoms

Minimization stats:
  Stopping criterion = energy tolerance
  Energy initial, next-to-last, final = 
         1409.72334813     -217.256630745     -217.275265106
  Force two-norm initial, final = 5034.49 0.337455
  Force max component initial, final = 2457.89 0.147661
  Final line search alpha, max atom move = 0.254892 0.0376377
  Iterations, force evaluations = 701 710

Pair  time (%) = 0.00893185 (16.1499)
Bond  time (%) = 5.87106e-05 (0.106156)
Neigh time (%) = 0.00314385 (5.68446)
Comm  time (%) = 0.0225806 (40.8284)
Outpt time (%) = 0 (0)
Other time (%) = 0.020591 (37.2311)

Nlocal:    64 ave 74 max 52 min
Histogram: 1 0 0 1 1 2 0 2 0 1
Nghost:    235.125 ave 266 max 224 min
Histogram: 4 0 2 0 0 1 0 0 0 1
Neighs:    316.25 ave 371 max 226 min
Histogram: 1 0 0 1 1 1 0 1 0 3

Total # of neighbors = 2530
Ave neighs/atom = 4.94141
Ave special neighs/atom = 0
Neighbor list builds = 60
Dangerous builds = 0
Setting up run ...
Memory usage per processor = 3.36354 Mbytes
Step Temp E_pair E_mol TotEng Press Volume 
     701       480.15   -217.27527            0     514.0863    33.203768      1000000 
 5000701    474.40079   -280.74518            0    441.85923      558.408    78631.922 
Loop time of 1196.98 on 8 procs for 5000000 steps with 512 atoms

Pair  time (%) = 584.882 (48.8633)
Bond  time (%) = 0.469264 (0.0392042)
Neigh time (%) = 26.0657 (2.17763)
Comm  time (%) = 427.218 (35.6915)
Outpt time (%) = 5.03957e-05 (4.21026e-06)
Other time (%) = 158.34 (13.2283)

Nlocal:    64 ave 72 max 57 min
Histogram: 2 0 0 2 0 1 1 0 1 1
Nghost:    1015.5 ave 1030 max 998 min
Histogram: 1 0 1 0 1 2 1 0 0 2
Neighs:    4187.62 ave 4960 max 3804 min
Histogram: 2 2 0 1 1 1 0 0 0 1

Total # of neighbors = 33501
Ave neighs/atom = 65.4316
Ave special neighs/atom = 0
Neighbor list builds = 102028
Dangerous builds = 3
Setting up run ...
Memory usage per processor = 3.93908 Mbytes
Step Press Volume Temp PotEng KinEng TotEng Enthalpy E_vdwl E_coul E_tail E_long E_bond E_angle E_dihed E_impro E_mol 
10000000      558.408    78631.922    474.40079   -280.74518    722.60441    441.85923    1082.2225   -280.74518            0    -6.660012            0            0            0            0            0            0 
10001000    535.45199    83082.066    463.87999   -257.37885    706.57918    449.20033    1097.9897   -257.37885            0   -6.3032803            0            0            0            0            0            0 
10002000    541.78571    78501.901    461.52086   -285.87063    702.98577    417.11514    1037.3892   -285.87063            0   -6.6710428            0            0            0            0            0            0 
10003000    643.28525    78322.292    470.63797   -253.59437     716.8729    463.27852    1198.0713   -253.59437            0   -6.6863409            0            0            0            0            0            0 
10004000    481.94457    85556.778    478.97859   -264.88666    729.57729    464.69063    1066.0408   -264.88666            0   -6.1209591            0            0            0            0            0            0 
10005000    524.11099    76476.447    458.46251   -295.56748    698.32731    402.75983    987.31682   -295.56748            0   -6.8477233            0            0            0            0            0            0 
10006000    474.72042    82264.631    500.68645   -285.59245    762.64256     477.0501    1046.5937   -285.59245            0   -6.3659137            0            0            0            0            0            0 
10007000    471.05339    81928.244    483.05587   -277.60049    735.78778    458.18729    1021.0204   -277.60049            0   -6.3920513            0            0            0            0            0            0 
10008000    491.65499     80772.39    480.77541   -282.05435    732.31419    450.25984    1029.4208   -282.05435            0   -6.4835217            0            0            0            0            0            0 
10009000    472.36171    81700.956    473.88868   -279.44776    721.82437     442.3766    1005.2072   -279.44776            0   -6.4098337            0            0            0            0            0            0 
10010000    470.67696    83030.817    462.83447   -276.61927    704.98666    428.36739     998.3192   -276.61927            0   -6.3071708            0            0            0            0            0            0 
10011000    530.15092    77340.509    487.50053   -289.79576    742.55785    452.76209    1050.7363   -289.79576            0   -6.7712193            0            0            0            0            0            0 
10012000    529.67416    81960.675    493.91776   -279.96001    752.33253    472.37252    1105.4986   -279.96001            0   -6.3895221            0            0            0            0            0            0 
10013000    492.39014    82619.759    493.94863   -281.83472    752.37956    470.54484    1063.8378   -281.83472            0   -6.3385509            0            0            0            0            0            0 
10014000    437.94867    78972.996    447.64895   -288.66343    681.85617    393.19273     897.5958   -288.66343            0   -6.6312483            0            0            0            0            0            0 
10015000    477.24473    77160.988    475.53023   -302.41127    724.32476    421.91349     958.9636   -302.41127            0    -6.786973            0            0            0            0            0            0 
10016000    455.08716     82939.91    515.77755   -284.25048    785.62924    501.37876    1051.8492   -284.25048            0   -6.3140839            0            0            0            0            0            0 
10017000    553.49989    79907.377    463.69994    -280.3386    706.30494    425.96634    1070.9969    -280.3386            0   -6.5537071            0            0            0            0            0            0 
10018000     514.6538    83138.675    526.52121   -279.62229    801.99391    522.37162    1146.3854   -279.62229            0   -6.2989884            0            0            0            0            0            0 
10019000    479.81235    84593.579    480.17197   -267.62595    731.39504    463.76909    1055.7187   -267.62595            0   -6.1906536            0            0            0            0            0            0 
10020000    501.00963    81664.806    455.51107   -274.95894    693.83169    418.87275    1015.5739   -274.95894            0   -6.4126711            0            0            0            0            0            0 
10021000     502.0157    82845.827    480.10176   -268.00892    731.28809    463.27917    1069.8253   -268.00892            0   -6.3212543            0            0            0            0            0            0 
10022000    587.25911    75113.764    467.29803   -295.79401    711.78553    415.99152    1059.3087   -295.79401            0   -6.9719518            0            0            0            0            0            0 
10023000    488.86114    86730.123    496.05146   -256.01218    755.58258    499.57039    1117.9161   -256.01218            0   -6.0381506            0            0            0            0            0            0 
10024000    497.83229    83578.368    506.26392   -274.68134    771.13814     496.4568    1103.2669   -274.68134            0   -6.2658504            0            0            0            0            0            0 
10025000    531.76849    78221.755    466.43664   -288.57054    710.47347    421.90293    1028.5359   -288.57054            0   -6.6949348            0            0            0            0            0            0 
10026000    480.04416     84443.93    473.70845   -263.70826    721.54983    457.84158    1049.0295   -263.70826            0   -6.2016245            0            0            0            0            0            0 
10027000     457.0329    81955.399    513.51608    -295.0327    782.18457    487.15187    1033.4138    -295.0327            0   -6.3899334            0            0            0            0            0            0 
10028000     548.4626    76916.729    488.91846   -298.72897    744.71763    445.98866    1061.2275   -298.72897            0    -6.808526            0            0            0            0            0            0 
10029000    485.80451    77552.124     459.3561   -291.24173    699.68843     408.4467    957.90043   -291.24173            0   -6.7527428            0            0            0            0            0            0 
10030000    486.60351    84036.758    488.59714   -269.40044     744.2282    474.82777    1071.2041   -269.40044            0   -6.2316724            0            0            0            0            0            0 
10031000    467.14169    79754.375    493.72111   -293.56984      752.033    458.46316    1001.8124   -293.56984            0   -6.5662798            0            0            0            0            0            0 
10032000    426.60182    83045.554    449.70476   -285.31611    684.98757    399.67146    916.34353   -285.31611            0   -6.3060516            0            0            0            0            0            0 
10033000    465.69964    78617.608    509.53038   -300.06676    776.11359    476.04683    1009.9981   -300.06676            0   -6.6612246            0            0            0            0            0            0 
10034000    621.07073    73784.843    459.26379   -296.92193    699.54782    402.62589    1070.9454   -296.92193            0   -7.0975219            0            0            0            0            0            0 
10035000    508.45697    82473.981    480.30913   -275.27837    731.60395    456.32558    1067.8968   -275.27837            0   -6.3497547            0            0            0            0            0            0 
10036000      424.333    84567.554    461.20729   -286.15516    702.50814    416.35299    939.69604   -286.15516            0   -6.1925588            0            0            0            0            0            0 
10037000    489.49118    78897.767    469.94215   -293.21448    715.81303    422.59855    985.82815   -293.21448            0   -6.6375712            0            0            0            0            0            0 
10038000    454.75729    81626.699    465.96788   -285.30918    709.75945    424.45026    965.81229   -285.30918            0   -6.4156649            0            0            0            0            0            0 
10039000    545.71442    82142.328    493.59317   -276.56199    751.83813    475.27614    1129.0211   -276.56199            0   -6.3753921            0            0            0            0            0            0 
10040000    522.09986    85409.054    475.16436   -256.13236    723.76747    467.63511    1117.9645   -256.13236            0    -6.131546            0            0            0            0            0            0 
10041000    382.37027    83327.333    481.52315   -296.76627    733.45315    436.68688    901.35993   -296.76627            0    -6.284727            0            0            0            0            0            0 
10042000    609.74917    77938.863    479.64255    -276.7001    730.58862    453.88852     1146.965    -276.7001            0   -6.7192351            0            0            0            0            0            0 
10043000    425.73572    81548.389    489.94935    -298.4069    746.28787    447.88097     954.2083    -298.4069            0   -6.4218258            0            0            0            0            0            0 
10044000    452.29114    85669.502    462.31046   -266.14941    704.18849    438.03908    1003.1325   -266.14941            0   -6.1129052            0            0            0            0            0            0 
10045000    626.57899    77946.561    485.43515   -277.26223    739.41188    462.14965    1174.4262   -277.26223            0   -6.7185715            0            0            0            0            0            0 
10046000    484.02023    84156.181    472.76331   -266.39772     720.1102    453.71248    1047.7658   -266.39772            0   -6.2228292            0            0            0            0            0            0 
10047000    508.46096    84975.096    477.38186   -259.32204    727.14515     467.8231    1097.9459   -259.32204            0   -6.1628592            0            0            0            0            0            0 
10048000    512.85436     78337.82     477.8001   -288.47643    727.78222    439.30579      1025.23   -288.47643            0   -6.6850155            0            0            0            0            0            0 
10049000     477.2142    80070.003    468.50788   -283.02783    713.62837    430.60054    987.86211   -283.02783            0   -6.5403962            0            0            0            0            0            0 
10050000    403.75023    84390.316    477.57829    -278.0404    727.44435    449.40396    946.31801    -278.0404            0   -6.2055645            0            0            0            0            0            0 
10051000    640.07637    73516.367    481.28703   -291.66312    733.09348    441.43036    1127.6951   -291.66312            0   -7.1234416            0            0            0            0            0            0 
10052000    366.24449    82256.892    467.04866   -290.55619    711.40569    420.84951    860.20827   -290.55619            0   -6.3665127            0            0            0            0            0            0 
10053000    498.38697    80936.388    499.26521   -286.28933    760.47774    474.18841    1062.4715   -286.28933            0   -6.4703845            0            0            0            0            0            0 
10054000    524.60161    80852.778    445.82982   -277.81859    679.08527    401.26669    1019.8532   -277.81859            0   -6.4770755            0            0            0            0            0            0 
10055000    495.06944    83996.627    482.39607   -271.60971    734.78277    463.17306    1069.6354   -271.60971            0   -6.2346497            0            0            0            0            0            0 
10056000    571.93167    78322.916    474.94421   -281.75223    723.43214    441.67991    1094.9742   -281.75223            0   -6.6862876            0            0            0            0            0            0 
10057000    540.88451    84416.934    493.82594   -259.35928    752.19268     492.8334    1158.7349   -259.35928            0   -6.2036077            0            0            0            0            0            0 
10058000    527.42373    80643.512    467.31667   -275.88384    711.81392    435.93009    1056.2347   -275.88384            0   -6.4938832            0            0            0            0            0            0 
10059000    532.76235      76993.4    449.03204   -286.54353    683.96287    397.41934    995.64208   -286.54353            0   -6.8017459            0            0            0            0            0            0 
10060000    505.03853     80898.28    461.57813   -273.38464      703.073    429.68837    1025.5421   -273.38464            0   -6.4734324            0            0            0            0            0            0 
10061000    455.89398    87081.189    494.30601   -267.76913    752.92391    485.15479    1064.1355   -267.76913            0   -6.0138079            0            0            0            0            0            0 
10062000    516.64512    79153.237    498.82492    -292.5346     759.8071    467.27249    1063.6715    -292.5346            0   -6.6161482            0            0            0            0            0            0 
10063000    509.81259    78460.899    482.94164   -286.92918    735.61378     448.6846    1032.0487   -286.92918            0    -6.674529            0            0            0            0            0            0 
10064000    474.35032    80480.778    470.69675   -287.00638    716.96244    429.95605    986.71506   -287.00638            0    -6.507014            0            0            0            0            0            0 
10065000     406.2557    84591.281    468.17903   -286.38143    713.12746    426.74603    927.93438   -286.38143            0   -6.1908217            0            0            0            0            0            0 
10066000    545.07814    81659.307    521.94652   -273.41525    795.02577    521.61052    1170.7535   -273.41525            0    -6.413103            0            0            0            0            0            0 
10067000    617.45613    78465.155    469.27262   -271.67285    714.79321    443.12036    1149.6963   -271.67285            0   -6.6741669            0            0            0            0            0            0 
10068000    463.20091    82022.648    464.10717   -285.04739    706.92522    421.87784    975.96627   -285.04739            0   -6.3846945            0            0            0            0            0            0 
10069000    474.36088    80127.428    493.16618   -287.35461    751.18774    463.83313      1018.16   -287.35461            0   -6.5357089            0            0            0            0            0            0 
10070000    460.51456    73034.328    478.10076   -321.03926    728.24017    407.20091    897.70914   -321.03926            0   -7.1704575            0            0            0            0            0            0 
10071000    451.00034    81186.327    449.40116   -286.35404    684.52512    398.17108    932.16419   -286.35404            0   -6.4504648            0            0            0            0            0            0 
10072000    449.03304    83084.442    493.65332   -287.96344    751.92974     463.9663    1008.0602   -287.96344            0      -6.3031            0            0            0            0            0            0 
10073000    531.67507    82223.577    493.44198    -273.1483    751.60783    478.45952    1116.0158    -273.1483            0   -6.3690923            0            0            0            0            0            0 
10074000    537.24136     81024.16    479.65727   -273.44713    730.61104    457.16391    1091.9974   -273.44713            0   -6.4633752            0            0            0            0            0            0 
10075000    471.11767    80695.511    448.39971   -279.73359    682.99972    403.26613    957.70626   -279.73359            0   -6.4896986            0            0            0            0            0            0 
10076000    476.08862    80472.826    470.14499   -284.11664    716.12199    432.00535    990.74944   -284.11664            0   -6.5076569            0            0            0            0            0            0 
10077000    413.52603    83780.483    465.95501     -276.163    709.73985    433.57685    938.84462     -276.163            0   -6.2507344            0            0            0            0            0            0 
10078000    455.88537    80342.251    446.97471   -282.54653    680.82917    398.28264    932.44778   -282.54653            0   -6.5182334            0            0            0            0            0            0 
10079000    493.39669    78867.529    458.39904   -290.89118    698.23064    407.33946    974.84533   -290.89118            0    -6.640116            0            0            0            0            0            0 
10080000    490.87618    80235.986    482.12918   -290.35715    734.37624    444.01909    1018.4225   -290.35715            0   -6.5268662            0            0            0            0            0            0 
10081000    458.48896    82865.002     486.7775   -286.40629    741.45653    455.05024    1009.1346   -286.40629            0   -6.3197916            0            0            0            0            0            0 
10082000    522.10204    76927.634    486.14624   -299.90881    740.49501     440.5862     1026.338   -299.90881            0   -6.8075608            0            0            0            0            0            0 
10083000    502.31446    81574.241    479.72326   -274.11663    730.71155    456.59492    1054.1867   -274.11663            0   -6.4197906            0            0            0            0            0            0 
10084000    477.33305    84116.826     496.9703   -275.99233    756.98214    480.98981    1066.5618   -275.99233            0   -6.2257407            0            0            0            0            0            0 
10085000    567.69293    76747.336    498.70826   -292.88403    759.62939    466.74536    1102.1534   -292.88403            0   -6.8235534            0            0            0            0            0            0 
10086000    441.02014    83944.639    474.02336   -275.76001     722.0295     446.2695    986.18684   -275.76001            0   -6.2385109            0            0            0            0            0            0 
10087000    439.75698     83601.54    469.94766   -278.13999    715.82143    437.68144    973.85194   -278.13999            0   -6.2641136            0            0            0            0            0            0 
10088000    604.99644    78183.281    481.56197   -279.90546    733.51227    453.60681    1143.4376   -279.90546            0   -6.6982293            0            0            0            0            0            0 
10089000    513.82007    83920.986    502.92986   -261.93267    766.05972    504.12705    1132.9922   -261.93267            0   -6.2402692            0            0            0            0            0            0 
10090000    579.50952    77038.994    461.96756   -282.48717    703.66619    421.17901    1072.2781   -282.48717            0   -6.7977204            0            0            0            0            0            0 
10091000    473.63063    83588.679    493.12334   -286.73219    751.12248     464.3903    1041.7722   -286.73219            0   -6.2650774            0            0            0            0            0            0 
10092000    455.37705    79855.502    467.43818   -290.97187      711.999    421.02713    951.36407   -290.97187            0   -6.5579644            0            0            0            0            0            0 
10093000    485.51841    81209.133    470.67078   -278.25446    716.92287    438.66842    1013.6931   -278.25446            0   -6.4486533            0            0            0            0            0            0 
10094000    466.17542    84721.281    480.65453   -270.07319    732.13007    462.05688    1038.0506   -270.07319            0   -6.1813223            0            0            0            0            0            0 
10095000    499.29123    77418.668    501.66421   -302.59451    764.13188    461.53737    1025.2731   -302.59451            0   -6.7643833            0            0            0            0            0            0 
10096000    397.60628    86252.538    469.68433   -276.11081    715.42032    439.30951    939.46035   -276.11081            0   -6.0715842            0            0            0            0            0            0 
10097000    458.22844    84545.562    495.15573   -284.29524    754.21821    469.92297    1034.9234   -284.29524            0   -6.1941696            0            0            0            0            0            0 
10098000    451.29986    80336.452    478.37868   -291.11552    728.66351    437.54799    966.30207   -291.11552            0   -6.5187039            0            0            0            0            0            0 
10099000    521.40198    81796.527    495.69778   -279.39854    755.04385    475.64531    1097.6354   -279.39854            0   -6.4023445            0            0            0            0            0            0 
10100000    411.37004    89102.543    472.36267   -251.99631    719.49995    467.50364    1002.0663   -251.99631            0   -5.8773805            0            0            0            0            0            0 
10101000    444.98303     79931.99    508.84584   -295.76022    775.07089    479.31067      998.039   -295.76022            0   -6.5516891            0            0            0            0            0            0 
10102000    533.54148    76774.687    489.81856   -296.69977    746.08866    449.38889    1046.7846   -296.69977            0   -6.8211225            0            0            0            0            0            0 
10103000    393.47302    82875.564    478.55003    -288.9394     728.9245     439.9851    915.55827    -288.9394            0   -6.3189862            0            0            0            0            0            0 
10104000    470.70895    82477.014    458.37682   -277.58031    698.19679    420.61648    986.80528   -277.58031            0   -6.3495211            0            0            0            0            0            0 
10105000     485.4926    81247.044    476.15602   -282.01686    725.27796     443.2611    1018.5236   -282.01686            0   -6.4456443            0            0            0            0            0            0 
10106000    529.36571    80889.272    501.71256   -279.30519    764.20553    484.90033    1109.3862   -279.30519            0   -6.4741533            0            0            0            0            0            0 
10107000    553.02653    79303.974     501.1109   -282.61714    763.28909    480.67194    1120.2842   -282.61714            0   -6.6035725            0            0            0            0            0            0 
10108000     532.7559    79132.735    459.50728   -283.34857     699.9187    416.57013    1031.4076   -283.34857            0   -6.6178623            0            0            0            0            0            0 
10109000    402.39907    86207.816    471.72879   -265.26957    718.53443    453.26486    959.18212   -265.26957            0   -6.0747339            0            0            0            0            0            0 
10110000    588.34299    79588.606     452.6513   -261.27708    689.47571    428.19863     1111.099   -261.27708            0   -6.5799562            0            0            0            0            0            0 
10111000    444.44288    84183.707     479.9336   -278.88467    731.03195    452.14728    997.80447   -278.88467            0   -6.2207945            0            0            0            0            0            0 
10112000    422.61698    84505.051    493.30766   -282.67002    751.40324    468.73322    989.57462   -282.67002            0    -6.197139            0            0            0            0            0            0 
10113000    510.30017    78203.491     464.5294   -283.30887    707.56836    424.25949    1006.2659   -283.30887            0   -6.6964983            0            0            0            0            0            0 
10114000    447.05801    83420.037    459.63268   -270.45109    700.10971    429.65862    973.54746   -270.45109            0   -6.2777429            0            0            0            0            0            0 
10115000    489.11505    79612.382    489.77303   -286.91811     746.0193    459.10119    1026.9955   -286.91811            0   -6.5779912            0            0            0            0            0            0 
10116000    574.90354    80333.705    491.20595   -272.03846    748.20193    476.16347    1149.7116   -272.03846            0   -6.5189269            0            0            0            0            0            0 
10117000    534.34654    83649.862    484.46194   -267.37041    737.92948    470.55907    1122.4338   -267.37041            0    -6.260495            0            0            0            0            0            0 
10118000    525.37827    76410.932    454.15058   -298.39873    691.75941    393.36068    978.82913   -298.39873            0   -6.8535945            0            0            0            0            0            0 
10119000    485.08146    83239.907    499.32309   -282.90315     760.5659    477.66275    1066.5364   -282.90315            0   -6.2913278            0            0            0            0            0            0 
10120000    536.49458     81854.76    510.08679   -279.87866    776.96111    497.08245    1137.5324   -279.87866            0   -6.3977898            0            0            0            0            0            0 
10121000    521.69672    78906.637    490.84656   -286.91887    747.65451    460.73564    1061.0898   -286.91887            0    -6.636825            0            0            0            0            0            0 
10122000    496.84031    80726.804    492.02679   -280.38208    749.45222    469.07014     1054.009   -280.38208            0   -6.4871829            0            0            0            0            0            0 
10123000    523.98593     82451.89    515.55192   -258.79055    785.28556    526.49502    1156.5757   -258.79055            0   -6.3514559            0            0            0            0            0            0 
10124000    464.34824    77646.302    478.26133   -301.61004    728.48475    426.87471    952.69879   -301.61004            0   -6.7445523            0            0            0            0            0            0 
10125000    469.19899    81622.791    472.21256   -278.61126     719.2713    440.66004    999.18733   -278.61126            0   -6.4159721            0            0            0            0            0            0 
10126000    479.68847    85520.397    470.04069   -269.89984    715.96314    446.06329    1044.3438   -269.89984            0   -6.1235631            0            0            0            0            0            0 
10127000    488.59318    77759.188    470.25134   -297.35871    716.28399    418.92529    973.00852   -297.35871            0    -6.734761            0            0            0            0            0            0 
10128000     502.0407    80986.267    491.30949   -278.23341    748.35963    470.12623    1063.0873   -278.23341            0   -6.4663994            0            0            0            0            0            0 
10129000    517.99517    80793.324    463.28488   -277.52714    705.67272    428.14559     1038.493   -277.52714            0   -6.4818418            0            0            0            0            0            0 
10130000    473.10837    81614.119    466.71803    -276.8041    710.90208    434.09798     997.2191    -276.8041            0   -6.4166538            0            0            0            0            0            0 
10131000    469.42346    90489.676    497.55339   -253.53931     757.8703    504.33099    1123.8287   -253.53931            0    -5.787285            0            0            0            0            0            0 
10132000    519.15767    80789.325    486.59186   -280.08567    741.17377     461.0881     1072.775   -280.08567            0   -6.4821626            0            0            0            0            0            0 
10133000    519.14225    81241.062    465.16986   -267.41449    708.54391    441.12942    1056.2183   -267.41449            0   -6.4461189            0            0            0            0            0            0 
10134000    480.26755    79999.909    479.22251   -286.94364    729.94882    443.00518    1003.3413   -286.94364            0   -6.5461268            0            0            0            0            0            0 
10135000     500.5142    78906.668    475.73509   -280.76566    724.63681    443.87115    1019.8493   -280.76566            0   -6.6368224            0            0            0            0            0            0 
10136000    511.70243    82092.521    466.06529   -275.74749    709.90782    434.16033    1046.7885   -275.74749            0   -6.3792602            0            0            0            0            0            0 
10137000    549.00052    83017.922    478.59114   -267.59923    728.98712     461.3879      1126.08   -267.59923            0   -6.3081505            0            0            0            0            0            0 
10138000    594.85861    78719.869    498.79885   -274.51645    759.76738    485.25093    1168.1775   -274.51645            0   -6.6525714            0            0            0            0            0            0 
10139000    449.43053    83718.869    487.64118   -284.99518    742.77209    457.77691    1006.5108   -284.99518            0   -6.2553347            0            0            0            0            0            0 
10140000    537.58033    78756.423    498.78878   -294.40683    759.75204    465.34522    1082.8001   -294.40683            0   -6.6494836            0            0            0            0            0            0 
10141000    457.69663    81668.304    493.26066    -279.3816    751.33164    471.95004    1017.0889    -279.3816            0   -6.4123965            0            0            0            0            0            0 
10142000    437.51381    86298.583    479.71773   -271.77079    730.70313    458.93234    1009.5769   -271.77079            0   -6.0683447            0            0            0            0            0            0 
10143000    438.06427    79763.445    466.40633   -293.83894    710.42729    416.58835    926.17451   -293.83894            0   -6.5655332            0            0            0            0            0            0 
10144000    545.16159    81096.032    493.56223     -277.073      751.791    474.71799    1119.4819     -277.073            0    -6.457647            0            0            0            0            0            0 
10145000     518.5957    83567.853    496.73536   -265.01996    756.62429    491.60433    1123.6436   -265.01996            0   -6.2666387            0            0            0            0            0            0 
10146000    645.92857     77452.27    460.72585   -271.61062    701.77482     430.1642    1159.7805   -271.61062            0   -6.7614486            0            0            0            0            0            0 
10147000    467.72116    83163.447    479.96358   -272.11682    731.07761    458.96079    1026.2381   -272.11682            0   -6.2971121            0            0            0            0            0            0 
10148000    509.63086    80958.553    471.60106   -275.56585    718.33988    442.77403    1044.4939   -275.56585            0    -6.468613            0            0            0            0            0            0 
10149000    547.11477    81710.258        486.6   -267.32489    741.18616    473.86128    1125.8362   -267.32489            0   -6.4091041            0            0            0            0            0            0 
10150000     537.6718    76422.387    481.82092    -300.8769     733.9067    433.02979    1032.2877    -300.8769            0   -6.8525673            0            0            0            0            0            0 
10151000    431.07971    79862.658     475.1467   -298.24881    723.74057    425.49176    927.57674   -298.24881            0   -6.5573769            0            0            0            0            0            0 
10152000    459.47047    81699.563    454.24808   -273.31501    691.90791     418.5929    966.05396   -273.31501            0    -6.409943            0            0            0            0            0            0 
10153000    443.47236    84979.346    447.79651   -265.26713    682.08093     416.8138    966.42533   -265.26713            0   -6.1625509            0            0            0            0            0            0 
10154000    502.48864     81831.23    490.55301   -274.52514    747.20737    472.68223    1072.3645   -274.52514            0   -6.3996294            0            0            0            0            0            0 
10155000    515.60889    77181.836    449.57939   -301.65979     684.7966    383.13682    963.51541   -301.65979            0   -6.7851398            0            0            0            0            0            0 
10156000    517.67731    83851.174    494.37675   -268.38415    753.03166    484.64751    1117.7065   -268.38415            0   -6.2454647            0            0            0            0            0            0 
10157000    450.07168    79995.445    498.15812   -298.31087    758.79142    460.48055    985.55736   -298.31087            0   -6.5464921            0            0            0            0            0            0 
10158000    570.65252    80726.373    460.17534   -270.08613    700.93629    430.85016    1102.6858   -270.08613            0   -6.4872176            0            0            0            0            0            0 
10159000    443.39204    85630.258    456.50938   -264.31165    695.35232    431.04068    984.76173   -264.31165            0   -6.1157067            0            0            0            0            0            0 
10160000    574.20955    75661.776    496.20454   -300.86538    755.81575    454.95037    1088.5615   -300.86538            0   -6.9214546            0            0            0            0            0            0 
10161000    473.68719    82330.584    452.23334   -276.04041    688.83909    412.79868    981.55826   -276.04041            0   -6.3608142            0            0            0            0            0            0 
10162000     474.3359    83251.106    474.01846    -267.5581    722.02205    454.46394    1030.3703    -267.5581            0   -6.2904815            0            0            0            0            0            0 
10163000     431.7337    81609.884    487.18532   -291.99827    742.07773    450.07946    963.92738   -291.99827            0   -6.4169868            0            0            0            0            0            0 
10164000    594.06908    76115.583    480.32001   -297.13293    731.62053     434.4876    1093.9445   -297.13293            0   -6.8801883            0            0            0            0            0            0 
10165000    463.60008    82089.143    481.34256   -279.90522    733.17807    453.27286    1008.2884   -279.90522            0   -6.3795226            0            0            0            0            0            0 
10166000    578.89833    76482.268    479.67499   -289.83225    730.63804    440.80579    1086.5179   -289.83225            0   -6.8472021            0            0            0            0            0            0 
10167000     556.5275    79728.871    474.83273   -280.93784    723.26234     442.3245    1089.4345   -280.93784            0   -6.5683803            0            0            0            0            0            0 
10168000     397.4315    85186.166    481.35477   -278.36128    733.19667    454.83539    948.58556   -278.36128            0   -6.1475891            0            0            0            0            0            0 
10169000    450.57136    81402.617    474.26812   -285.09153    722.40233    437.31079    972.21724   -285.09153            0   -6.4333257            0            0            0            0            0            0 
10170000    562.74464    78246.735    478.85694    -276.9641    729.39199    452.42788     1094.603    -276.9641            0   -6.6927974            0            0            0            0            0            0 
10171000    456.58987    81984.753    488.83828   -280.05645    744.59551    464.53906    1010.4669   -280.05645            0   -6.3876456            0            0            0            0            0            0 
10172000    482.03124    81025.637    494.70337    -283.4138    753.52918    470.11538      1039.72    -283.4138            0   -6.4632574            0            0            0            0            0            0 
10173000    438.40838    82562.514    506.99275   -278.09213    772.24829    494.15615    1022.0391   -278.09213            0   -6.3429457            0            0            0            0            0            0 
10174000    482.39353    82192.128    480.24789   -271.77656    731.51067    459.73411    1037.9734   -271.77656            0   -6.3715292            0            0            0            0            0            0 
10175000    495.04559    76827.236    460.65451   -290.55674    701.66616    411.10942    965.78149   -290.55674            0    -6.816457            0            0            0            0            0            0 
10176000    436.98601    80460.969     467.5184   -296.08268    712.12119    416.03851    928.81568   -296.08268            0   -6.5086159            0            0            0            0            0            0 
10177000    568.46558    79674.377    510.46008   -277.75989     777.5297    499.76981    1160.3092   -277.75989            0   -6.5728728            0            0            0            0            0            0 
10178000     541.6103    82420.644    503.73456   -272.14603    767.28542    495.13939    1146.1661   -272.14603            0   -6.3538638            0            0            0            0            0            0 
10179000     504.3184    82131.781    488.69078   -275.76981    744.37084    468.60103    1072.6775   -275.76981            0   -6.3762108            0            0            0            0            0            0 
10180000    446.07051     79037.86    469.42891   -293.77334    715.03127    421.25793    935.43721   -293.77334            0   -6.6258062            0            0            0            0            0            0 
10181000    444.92027    80690.251    471.51245   -293.26995    718.20491    424.93496    948.51025   -293.26995            0   -6.4901216            0            0            0            0            0            0 
10182000    507.66483    86564.714    504.83051   -253.41682    768.95478    515.53796    1156.4433   -253.41682            0   -6.0496884            0            0            0            0            0            0 
10183000    455.03875    83144.076    470.56653   -271.75906    716.76409    445.00503    996.77184   -271.75906            0   -6.2985792            0            0            0            0            0            0 
10184000    517.32866    77887.484    457.08211   -293.98035     696.2247    402.24435    989.88266   -293.98035            0   -6.7236675            0            0            0            0            0            0 
10185000    416.34478    86356.236    478.17755   -270.14156    728.35714    458.21558    982.56733   -270.14156            0   -6.0642933            0            0            0            0            0            0 
10186000    506.15843    78942.423    482.16062   -287.63816    734.42413    446.78596    1029.5233   -287.63816            0   -6.6338164            0            0            0            0            0            0 
10187000    552.23548    79810.219    474.09168   -272.36128    722.13358     449.7723    1092.5469   -272.36128            0   -6.5616854            0            0            0            0            0            0 
10188000    540.81955      83172.5    464.48213   -259.59551    707.49636    447.90084    1103.9072   -259.59551            0   -6.2964267            0            0            0            0            0            0 
10189000    376.23169     89134.48    489.07681   -269.02231    744.95884    475.93653    965.01326   -269.02231            0   -5.8752746            0            0            0            0            0            0 
10190000    443.60396    77761.852    439.89451   -294.02443    670.04464    376.02022    879.10121   -294.02443            0   -6.7345302            0            0            0            0            0            0 
10191000     443.2848    79148.665    471.15698   -298.00778    717.66346    419.65568    931.34025   -298.00778            0   -6.6165304            0            0            0            0            0            0 
10192000    422.13519    81931.505    472.87426   -286.34192    720.27921    433.93729    938.34112   -286.34192            0    -6.391797            0            0            0            0            0            0 
10193000    436.26227    79854.959    455.70896   -289.52625    694.13313    404.60688    912.67908   -289.52625            0   -6.5580091            0            0            0            0            0            0 
10194000    435.73613     83160.85    485.98963   -282.91776    740.25646     457.3387    985.80632   -282.91776            0   -6.2973087            0            0            0            0            0            0 
10195000    591.98366      77254.5    466.72475   -285.05172     710.9123    425.86058    1092.8353   -285.05172            0   -6.7787578            0            0            0            0            0            0 
10196000    339.88978    83978.856    440.52716    -289.8071     671.0083     381.2012    797.47967    -289.8071            0    -6.235969            0            0            0            0            0            0 
10197000    459.27607    77892.113    487.11029   -306.89987    741.96344    435.06357    956.79042   -306.89987            0   -6.7232679            0            0            0            0            0            0 
10198000    503.03974    79277.884    470.97805   -279.90602    717.39092    437.48489    1019.0927   -279.90602            0   -6.6057457            0            0            0            0            0            0 
10199000    519.06059    81683.323    473.14435   -279.02246    720.69061    441.66815    1060.0082   -279.02246            0   -6.4112175            0            0            0            0            0            0 
10200000    469.64346    81283.828    493.34664   -282.82602     751.4626    468.63658    1025.3713   -282.82602            0   -6.4427274            0            0            0            0            0            0 
10201000    491.17817    79887.202    469.54209   -288.73492    715.20366    426.46874    998.72711   -288.73492            0   -6.5553622            0            0            0            0            0            0 
10202000    403.82693    82926.405    471.49127   -287.69923    718.17264    430.47341    918.86031   -287.69923            0   -6.3151121            0            0            0            0            0            0 
10203000    490.83607    79679.686    491.43839   -296.06744    748.55597    452.48853    1022.8629   -296.06744            0   -6.5724348            0            0            0            0            0            0 
10204000    470.56723    81261.987    480.53734    -281.9982    731.95157    449.95337    1007.6333    -281.9982            0    -6.444459            0            0            0            0            0            0 
10205000    452.60291    85580.941    495.84367   -269.09031    755.26607    486.17576    1051.0741   -269.09031            0    -6.119231            0            0            0            0            0            0 
10206000     485.7638    76869.497    462.89525   -294.24361    705.07924    410.83562    955.40733   -294.24361            0   -6.8127094            0            0            0            0            0            0 
10207000    447.12434    82101.885    465.08124   -281.14038    708.40893    427.26855    962.64261   -281.14038            0   -6.3785325            0            0            0            0            0            0 
10208000    527.42383    79761.104    493.70754   -282.95183    752.01233     469.0605    1082.5778   -282.95183            0   -6.5657259            0            0            0            0            0            0 
10209000    451.55671     80273.29    495.44325   -297.46301    754.65616    457.19315    985.83221   -297.46301            0   -6.5238331            0            0            0            0            0            0 
10210000    558.09258      80287.6    465.85585   -269.99637     709.5888    439.59243    1093.0699   -269.99637            0   -6.5226703            0            0            0            0            0            0 
10211000    398.82366    82146.929     495.2057    -293.2637    754.29432    461.03062    938.83281    -293.2637            0    -6.375035            0            0            0            0            0            0 
10212000    551.72312    76361.819    498.03138    -300.4889    758.59837    458.10947    1072.5408    -300.4889            0   -6.8580025            0            0            0            0            0            0 
10213000    485.65859    83068.212     497.1233   -270.75824     757.2152    486.45696    1074.8152   -270.75824            0   -6.3043315            0            0            0            0            0            0 
10214000    423.49355    79548.872    482.13667   -298.35054    734.38766    436.03712    927.34838   -298.35054            0   -6.5832429            0            0            0            0            0            0 
10215000    466.28511    78724.997     480.1628   -305.62229    731.38107    425.75878    961.11159   -305.62229            0    -6.652138            0            0            0            0            0            0 
10216000    468.61219    82886.865    473.95938   -274.85948    721.93206    447.07258    1013.5403   -274.85948            0   -6.3181247            0            0            0            0            0            0 
10217000    492.90433    81384.213    482.74253   -282.49131    735.31049    452.81918    1037.8499   -282.49131            0   -6.4347804            0            0            0            0            0            0 
10218000    471.58863    81293.547    476.70343    -283.5469    726.11177    442.56487    1001.6723    -283.5469            0   -6.4419571            0            0            0            0            0            0 
10219000    425.69794    85934.377    444.05665   -267.41026    676.38439    408.97413    942.48635   -267.41026            0   -6.0940634            0            0            0            0            0            0 
10220000    537.46113      77167.4    468.35678   -297.78861    713.39821    415.60961    1020.4723   -297.78861            0   -6.7864091            0            0            0            0            0            0 
10221000    509.67415    80941.848    510.34921   -277.66738    777.36082    499.69344    1101.3403   -277.66738            0   -6.4699479            0            0            0            0            0            0 
10222000    500.43647    82690.409    480.39273   -270.22213    731.73129    461.50915    1065.0129   -270.22213            0   -6.3331353            0            0            0            0            0            0 
10223000    527.77334    78928.616    488.84402   -283.92866    744.60425    460.67559    1068.1917   -283.92866            0   -6.6349769            0            0            0            0            0            0 
10224000    558.94962    81124.715      451.347   -259.63342    687.48901    427.85559    1089.1605   -259.63342            0   -6.4553637            0            0            0            0            0            0 
10225000    389.94741    84673.805    455.31835    -279.0303    693.53815    414.50785    896.04634    -279.0303            0   -6.1847882            0            0            0            0            0            0 
10226000     492.0732    81333.108      488.036   -273.50818    743.37348     469.8653    1053.5428   -273.50818            0   -6.4388237            0            0            0            0            0            0 
10227000    422.50651    79704.061    485.05247   -297.54108    738.82898    441.28791    932.41031   -297.54108            0   -6.5704249            0            0            0            0            0            0 
10228000    474.50664     85629.87    457.56218    -255.9102    696.95594    441.04574    1033.6209    -255.9102            0   -6.1157344            0            0            0            0            0            0 
10229000    442.49067    85457.361    478.88918   -265.80436    729.44109    463.63673    1015.1164   -265.80436            0     -6.12808            0            0            0            0            0            0 
10230000    510.14966    77692.627    474.06339   -290.88199    722.09049     431.2085    1009.2424   -290.88199            0   -6.7405308            0            0            0            0            0            0 
10231000     438.5604    81767.876    471.24917   -283.69462    717.80388    434.10927    957.09281   -283.69462            0   -6.4045879            0            0            0            0            0            0 
10232000    647.41821    80444.397    513.77226   -268.12112    782.57479    514.45367    1274.0041   -268.12112            0   -6.5099568            0            0            0            0            0            0 
10233000    532.22224    83348.441    488.24608   -262.99822    743.69347    480.69525    1127.6388   -262.99822            0   -6.2831355            0            0            0            0            0            0 
10234000    558.22753    81982.865     499.2608    -268.5037    760.47102    491.96732    1159.4042    -268.5037            0   -6.3877927            0            0            0            0            0            0 
10235000    521.90942    75092.605    458.51848   -303.09713    698.41257    395.31545    966.88383   -303.09713            0   -6.9739163            0            0            0            0            0            0 
10236000     495.0768     82753.14    477.23832   -268.93289    726.92651    457.99363    1055.4868   -268.93289            0   -6.3283345            0            0            0            0            0            0 
10237000    481.99223    79331.856    497.89538   -298.77642    758.39122     459.6148    1017.2672   -298.77642            0   -6.6012516            0            0            0            0            0            0 
10238000    474.62868    80858.524    501.16161   -288.10103    763.36632    475.26529    1034.9658   -288.10103            0   -6.4766152            0            0            0            0            0            0 
10239000    507.63137    83651.148    508.16884   -267.93651    774.03969    506.10318    1125.3963   -267.93651            0   -6.2603988            0            0            0            0            0            0 
10240000    496.13139    79358.318    487.09718    -288.4843    741.94347    453.45917    1027.6616    -288.4843            0   -6.5990505            0            0            0            0            0            0 
10241000    541.29119    76129.084    485.47414    -294.9219    739.47126    444.54937    1045.5258    -294.9219            0   -6.8789682            0            0            0            0            0            0 
10242000    623.33614    80612.524    472.71219   -257.55119    720.03234    462.48115    1195.3069   -257.55119            0   -6.4963795            0            0            0            0            0            0 
10243000    529.88147    81629.034    473.01919   -272.91827    720.49996    447.58169    1078.3927   -272.91827            0   -6.4154813            0            0            0            0            0            0 
10244000    409.74265    79934.376    486.66005   -298.44286    741.27763    442.83477    920.49673   -298.44286            0   -6.5514935            0            0            0            0            0            0 
10245000    580.61067    75341.589    491.89861   -298.77045    749.25699    450.48654    1088.4498   -298.77045            0   -6.9508694            0            0            0            0            0            0 
10246000    441.83192    85174.175    446.82616   -256.42938     680.6029    424.17352     973.0074   -256.42938            0   -6.1484546            0            0            0            0            0            0 
10247000    421.56912    82366.651    480.21165   -290.87181    731.45547    440.58366    946.98645   -290.87181            0   -6.3580288            0            0            0            0            0            0 
10248000    585.09426    78893.919    519.03205   -289.10526    790.58648    501.48122     1174.683   -289.10526            0    -6.637895            0            0            0            0            0            0 
10249000    522.80745    80842.988    472.51348     -282.087    719.72967    437.64267     1054.039     -282.087            0   -6.4778599            0            0            0            0            0            0 
10250000    423.88278    86403.539    512.78659   -270.37955    781.07343    510.69388    1044.8315   -270.37955            0   -6.0609733            0            0            0            0            0            0 
10251000    496.51269    78814.846    489.77469   -284.76107    746.02184    461.26076    1031.9692   -284.76107            0   -6.6445546            0            0            0            0            0            0 
10252000    549.84861    82980.203    489.26587   -259.68337    745.24681    485.56343    1150.9799   -259.68337            0   -6.3110179            0            0            0            0            0            0 
10253000    447.97472    85038.265    473.47483   -267.71664      721.194    453.47736    1009.0537   -267.71664            0   -6.1582812            0            0            0            0            0            0 
10254000    458.99019     79479.08    483.18564   -301.66284    735.98543    434.32259    966.34769   -301.66284            0   -6.5890237            0            0            0            0            0            0 
10255000    502.64933    77799.447    484.07981   -293.13247    737.34743    444.21496    1014.5335   -293.13247            0    -6.731276            0            0            0            0            0            0 
10256000    445.78866    82661.596    489.26497   -278.74599    745.24544    466.49945    1003.9131   -278.74599            0   -6.3353428            0            0            0            0            0            0 
10257000    474.22918     80028.27    482.85696   -281.34312     735.4848    454.14168    1007.6289   -281.34312            0   -6.5438069            0            0            0            0            0            0 
10258000    427.63378    84159.633    459.52814   -275.79314    699.95047    424.15733    949.02731   -275.79314            0    -6.222574            0            0            0            0            0            0 
10259000     509.4364     80878.72    464.18455   -273.94461    707.04309    433.09848    1033.9956   -273.94461            0    -6.474998            0            0            0            0            0            0 
10260000    445.07392    78907.912    466.62945   -297.76269    710.76715    413.00445     925.1915   -297.76269            0   -6.6367179            0            0            0            0            0            0 
10261000     490.9983    83595.557    483.36888   -274.08372    736.26455    462.18082    1060.7841   -274.08372            0    -6.264562            0            0            0            0            0            0 
10262000    430.52587    77316.207    480.71604   -303.54273    732.22375    428.68103    914.13234   -303.54273            0   -6.7733476            0            0            0            0            0            0 
10263000    490.29903    78953.087    474.59856   -292.87219    722.90565    430.03346    994.58817   -292.87219            0   -6.6329205            0            0            0            0            0            0 
10264000    429.60003     87459.37    480.05625   -269.62396    731.21877    461.59481    1009.5519   -269.62396            0   -5.9878038            0            0            0            0            0            0 
10265000    574.12659    80015.616    516.83561   -277.50004    787.24086    509.74082    1179.7154   -277.50004            0   -6.5448417            0            0            0            0            0            0 
10266000    470.65369    80035.828    491.48767    -291.3257    748.63103    457.30533    1006.6714    -291.3257            0    -6.543189            0            0            0            0            0            0 
10267000    455.08555    79366.901    465.15161   -288.71779    708.51612    419.79833    946.55295   -288.71779            0   -6.5983368            0            0            0            0            0            0 
10268000     495.3556    79799.976    472.24117   -287.57175    719.31488    431.74313    1008.2384   -287.57175            0   -6.5625276            0            0            0            0            0            0 
10269000    393.25988    83683.597    483.64127   -287.97901    736.67944    448.70043    928.65029   -287.97901            0   -6.2579713            0            0            0            0            0            0 
10270000    493.04221    82972.336    483.88192   -267.58663      737.046    469.45937    1066.0732   -267.58663            0   -6.3116163            0            0            0            0            0            0 
10271000    556.01904    79377.061    478.28574   -272.98365    728.52194    455.53828    1099.2043   -272.98365            0   -6.5974922            0            0            0            0            0            0 
10272000    451.91062    83478.275    463.02031   -276.99019    705.26973    428.27954    978.45588   -276.99019            0   -6.2733633            0            0            0            0            0            0 
10273000    489.21182    78266.213     518.0548   -300.50692    789.09794    488.59101    1046.9933   -300.50692            0   -6.6911318            0            0            0            0            0            0 
10274000    486.52127    79185.176    489.46451   -287.23693    745.54937    458.31244     1020.164   -287.23693            0   -6.6134796            0            0            0            0            0            0 
10275000    456.50007    84298.517    473.99666   -267.27093    721.98883     454.7179    1015.9425   -267.27093            0   -6.2123221            0            0            0            0            0            0 
10276000    476.45892     85695.11    483.88524    -263.5666    737.05107    473.48447     1068.951    -263.5666            0   -6.1110785            0            0            0            0            0            0 
10277000    532.05218    75989.459    484.35434   -305.87716    737.76559    431.88844    1021.5237   -305.87716            0   -6.8916078            0            0            0            0            0            0 
10278000    403.81709      81989.1    470.96883    -293.8563    717.37687    423.52057    906.37554    -293.8563            0   -6.3873069            0            0            0            0            0            0 
10279000    525.91101    81569.934    479.42403   -268.86665    730.25577    461.38912    1087.0201   -268.86665            0   -6.4201296            0            0            0            0            0            0 
10280000    581.61099    78380.876    481.71626   -276.54448    733.74729     457.2028     1122.045   -276.54448            0   -6.6813433            0            0            0            0            0            0 
10281000    447.85465    86876.656    474.45511   -259.37695    722.68714     463.3102    1030.7451   -259.37695            0   -6.0279662            0            0            0            0            0            0 
10282000    572.75439     83723.19    474.31078   -246.34401     722.4673    476.12328     1175.466   -246.34401            0   -6.2550118            0            0            0            0            0            0 
10283000    501.39103    78626.638    469.07626   -295.43184    714.49412    419.06228    994.00179   -295.43184            0   -6.6604596            0            0            0            0            0            0 
10284000    451.64938    80941.946    454.80057   -292.20042    692.74947    400.54905    933.70093   -292.20042            0   -6.4699401            0            0            0            0            0            0 
10285000    458.00658    87051.658    499.75882   -264.05368     761.2296    497.17591    1078.6424   -264.05368            0    -6.015848            0            0            0            0            0            0 
10286000    410.32546    81929.292     499.4308   -295.21537    760.72996    465.51459    955.79389   -295.21537            0   -6.3919696            0            0            0            0            0            0 
10287000    474.89061    78621.067    462.96485   -297.03677    705.18525    408.14848    952.66167   -297.03677            0   -6.6609316            0            0            0            0            0            0 
10288000    408.36154    84577.118    486.35956   -275.07839    740.81993    465.74155    969.44347   -275.07839            0   -6.1918585            0            0            0            0            0            0 
10289000    557.05239    81980.256    527.28299   -268.21598    803.15426    534.93828     1200.949   -268.21598            0    -6.387996            0            0            0            0            0            0 
10290000     522.6693    81783.988    497.22932   -273.62584    757.37668    483.75084    1107.1571   -273.62584            0   -6.4033261            0            0            0            0            0            0 
10291000      492.339    77614.577     506.0907   -298.95576    770.87429    471.91852    1029.2113   -298.95576            0   -6.7473091            0            0            0            0            0            0 
10292000    535.72418    78883.327    471.01951   -283.30003    717.45406    434.15403    1050.4685   -283.30003            0   -6.6387863            0            0            0            0            0            0 
10293000    450.62218    84955.241    461.10582   -277.75475    702.35359    424.59883    982.91297   -277.75475            0   -6.1642995            0            0            0            0            0            0 
10294000    567.03048    79643.079    502.23591   -281.92531    765.00269    483.07738    1141.6904   -281.92531            0   -6.5754558            0            0            0            0            0            0 
10295000    537.82299    80897.589     485.8093   -275.52619    739.98179    464.45559    1098.9837   -275.52619            0   -6.4734876            0            0            0            0            0            0 
10296000    501.52279    80412.147    481.73411   -284.45011    733.77448    449.32437    1037.4745   -284.45011            0   -6.5125676            0            0            0            0            0            0 
10297000    456.24248    79685.972    463.57654   -288.98915    706.11698    417.12783    947.34462   -288.98915            0   -6.5719164            0            0            0            0            0            0 
10298000     459.1966    81773.994    469.29512   -288.96956    714.82748    425.85793    973.49112   -288.96956            0   -6.4041087            0            0            0            0            0            0 
10299000    481.14743    84112.604     502.3055   -267.75646     765.1087    497.35224    1087.5739   -267.75646            0   -6.2260532            0            0            0            0            0            0 
10300000     585.5025     76447.72    448.86212   -287.66621    683.70406    396.03784    1048.8214   -287.66621            0   -6.8502965            0            0            0            0            0            0 
10301000    548.63904    78538.569    499.46849   -291.03376    760.78737    469.75361    1098.1672   -291.03376            0   -6.6679283            0            0            0            0            0            0 
10302000    490.98487    85122.735    475.03372    -261.8466    723.56848    461.72188    1071.2441    -261.8466            0   -6.1521701            0            0            0            0            0            0 
10303000    464.56972    78572.455    461.22222   -302.45114    702.53089    400.07976    932.42957   -302.45114            0   -6.6650526            0            0            0            0            0            0 
10304000       512.67    78178.994    494.62881   -292.61498    753.41561    460.80063    1045.3267   -292.61498            0   -6.6985967            0            0            0            0            0            0 
10305000    524.10512    84119.514    471.67111   -264.23985    718.44657    454.20672    1097.1772   -264.23985            0   -6.2255418            0            0            0            0            0            0 
10306000    531.99061    79299.905     468.8151   -280.91775    714.09632    433.17858    1048.4299   -280.91775            0   -6.6039113            0            0            0            0            0            0 
10307000    484.92637    79053.748    486.25642   -297.63859    740.66282    443.02424    1002.1045   -297.63859            0   -6.6244746            0            0            0            0            0            0 
10308000    483.28028    83722.663    478.62428   -274.72786    729.03761    454.30975    1044.3994   -274.72786            0   -6.2550512            0            0            0            0            0            0 
10309000    524.04014    73624.969    476.38008   -317.34479    725.61925    408.27446    970.95976   -317.34479            0    -7.112934            0            0            0            0            0            0 
10310000    460.31702    79623.907     456.3942   -286.67916    695.17688    408.49772    943.03304   -286.67916            0   -6.5770391            0            0            0            0            0            0 
10311000    479.64008    86654.278    497.12425   -263.99929    757.21664    493.21735    1099.3691   -263.99929            0   -6.0434355            0            0            0            0            0            0 
10312000    450.19367    81343.416    489.65658   -296.04465    745.84193    449.79727    983.86665   -296.04465            0   -6.4380078            0            0            0            0            0            0 
10313000    550.36022    80881.932    468.51111   -277.64959    713.63329     435.9837    1085.1776   -277.64959            0   -6.4747408            0            0            0            0            0            0 
10314000    496.86028    86094.876    503.01553   -259.69094     766.1902    506.49926    1130.3597   -259.69094            0   -6.0827028            0            0            0            0            0            0 
10315000    477.99797    80095.936    471.31218    -290.6896    717.89985    427.21026    985.56785    -290.6896            0   -6.5382786            0            0            0            0            0            0 
10316000    460.55925    79155.144    482.24808   -295.40576    734.55735    439.15159    970.81962   -295.40576            0   -6.6159888            0            0            0            0            0            0 
10317000    443.66512    80919.959    476.24285   -288.28801    725.41022    437.12221    960.70676   -288.28801            0   -6.4716981            0            0            0            0            0            0 
10318000    467.58288    81143.019    508.41245   -296.27044    774.41076    478.14031    1031.4721   -296.27044            0   -6.4539076            0            0            0            0            0            0 
10319000    530.74143    81229.271    480.91229   -269.42216    732.52269    463.10053     1091.841   -269.42216            0   -6.4470546            0            0            0            0            0            0 
10320000    429.21373    80973.248    469.65353   -286.38979    715.37341    428.98363    935.84717   -286.38979            0    -6.467439            0            0            0            0            0            0 
10321000    415.70747    79229.859    453.17447   -295.86964     690.2726    394.40295    874.74721   -295.86964            0   -6.6097498            0            0            0            0            0            0 
10322000    509.56434    80229.453     480.6223   -279.88197    732.08097      452.199     1048.422   -279.88197            0   -6.5273977            0            0            0            0            0            0 
10323000      530.902    84426.336     512.7195    -258.2092    780.97123    522.76203    1176.4465    -258.2092            0   -6.2029169            0            0            0            0            0            0 
10324000    575.76209    78950.776    469.86296   -284.50846    715.69241    431.18395    1094.1257   -284.50846            0   -6.6331146            0            0            0            0            0            0 
10325000    458.55237    80057.684    482.74123   -291.98559    735.30852    443.32293    978.70998   -291.98559            0   -6.5414026            0            0            0            0            0            0 
10326000    422.70321    81925.769    474.80273   -287.21992    723.21664    435.99672    941.04391   -287.21992            0   -6.3922445            0            0            0            0            0            0 
10327000     500.9029    85592.252    506.81232   -267.89138    771.97346    504.08208    1129.3467   -267.89138            0   -6.1184223            0            0            0            0            0            0 
10328000    584.58331    81886.398     476.9139   -265.38368    726.43236    461.04868    1159.1751   -265.38368            0   -6.3953178            0            0            0            0            0            0 
10329000    435.83903    83296.215    458.83662   -283.73695    698.89716    415.16022    944.61305   -283.73695            0   -6.2870749            0            0            0            0            0            0 
10330000    464.18349    80443.151    473.25787   -285.20001    720.86352    435.66351     980.2347   -285.20001            0   -6.5100576            0            0            0            0            0            0 
10331000    412.70067    80105.169    491.60284   -295.69405    748.80646    453.11241    935.25068   -295.69405            0    -6.537525            0            0            0            0            0            0 
10332000    585.23818     81582.99    506.23719   -253.97549    771.09742    517.12192    1213.4408   -253.97549            0   -6.4191022            0            0            0            0            0            0 
10333000    464.17449     79841.93    472.35629   -291.58717    719.49023    427.90306    968.39372   -291.58717            0   -6.5590792            0            0            0            0            0            0 
10334000    398.13734     80202.33    476.81136   -296.89834    726.27617    429.37783    895.06663   -296.89834            0   -6.5296051            0            0            0            0            0            0 
10335000    394.98373    89391.089    474.65112   -261.08862     722.9857    461.89709    976.82843   -261.08862            0   -5.8584088            0            0            0            0            0            0 
10336000    448.72457    80570.214    458.28522   -281.34995    698.05727    416.70732    943.97392   -281.34995            0   -6.4997909            0            0            0            0            0            0 
10337000    480.29578    77425.028    473.99087   -295.85378    721.98002    426.12624    968.45925   -295.85378            0   -6.7638276            0            0            0            0            0            0 
10338000    445.17042    79843.963    508.67525    -290.3519    774.81106    484.45916    1002.8344    -290.3519            0   -6.5589122            0            0            0            0            0            0 
10339000    394.50559    84782.361    467.74061   -273.69541    712.45965    438.76425    926.55612   -273.69541            0   -6.1768691            0            0            0            0            0            0 
10340000    521.90927    78129.551    482.96107   -291.42683    735.64337    444.21654    1038.9005   -291.42683            0   -6.7028357            0            0            0            0            0            0 
10341000    455.55415    77916.028    467.10131   -295.24587    711.48588    416.24001    933.89774   -295.24587            0   -6.7212043            0            0            0            0            0            0 
10342000    475.26471    82324.641    479.43035   -289.03165     730.2654    441.23376    1011.8463   -289.03165            0   -6.3612733            0            0            0            0            0            0 
10343000    459.36564     80165.37    491.63028   -285.87309    748.84826    462.97517    1000.0332   -285.87309            0   -6.5326156            0            0            0            0            0            0 
10344000    477.30206     78991.22    503.29592   -300.37024     766.6173    466.24706    1016.1019   -300.37024            0   -6.6297184            0            0            0            0            0            0 
10345000    496.71698    85355.019    472.70292   -260.84007    720.01822    459.17815    1077.4991   -260.84007            0   -6.1354276            0            0            0            0            0            0 
10346000    453.57117    80457.677    469.15512   -289.13932    714.61424    425.47492    957.69201   -289.13932            0   -6.5088822            0            0            0            0            0            0 
10347000     514.1072    81770.097    491.21342   -280.61921     748.2133    467.59409    1080.6839   -280.61921            0   -6.4044139            0            0            0            0            0            0 
10348000    492.98348    83555.465    493.22338   -272.87932    751.27486    478.39554    1079.1308   -272.87932            0   -6.2675678            0            0            0            0            0            0 
10349000    417.82788    78959.363    475.33996   -306.06743    724.03494    417.96751    899.11358   -306.06743            0   -6.6323932            0            0            0            0            0            0 
10350000    565.77307    80829.681    496.94937   -266.81421    756.95027    490.13606    1157.0795   -266.81421            0   -6.4789263            0            0            0            0            0            0 
10351000    507.45198    78798.644    460.79007   -291.81911    701.87264    410.05352    993.21602   -291.81911            0   -6.6459208            0            0            0            0            0            0 
10352000    448.53728    83338.871    489.89842   -278.13019     746.2103    468.08011    1013.2377   -278.13019            0   -6.2838569            0            0            0            0            0            0 
10353000    481.02873    82512.368    483.72542   -274.77462    736.80763    462.03301    1040.8829   -274.77462            0   -6.3468006            0            0            0            0            0            0 
[...]
14939000    379.17404    85854.656     467.4364   -277.72072    711.99629    434.27557    909.04017   -277.72072            0   -6.0997222            0            0            0            0            0            0 
14940000    547.08448    79292.072    490.05909    -283.6228    746.45504    462.83224    1095.4772    -283.6228            0   -6.6045638            0            0            0            0            0            0 
14941000    466.25062    81436.089     464.5792   -284.09595    707.64422    423.54827    977.29634   -284.09595            0   -6.4306814            0            0            0            0            0            0 
14942000     539.0534    83405.668     470.1215   -264.72372    716.08622     451.3625    1107.0596   -264.72372            0   -6.2788245            0            0            0            0            0            0 
14943000     491.9863    80885.937    509.21413   -281.39835    775.63187    494.23352    1074.5995   -281.39835            0   -6.4744202            0            0            0            0            0            0 
14944000    527.87997    73686.402    452.30544   -315.15461    688.94891    373.79429    941.07554   -315.15461            0   -7.1070039            0            0            0            0            0            0 
14945000    524.72297    79497.642    483.82884   -284.92041    736.96516    452.04475    1060.4041   -284.92041            0   -6.5874852            0            0            0            0            0            0 
14946000    467.73699    83641.328     475.2225   -265.80977    723.85603    458.04627    1028.6026   -265.80977            0   -6.2611338            0            0            0            0            0            0 
14947000    556.50707    76781.412    466.49821   -294.38439    710.56724    416.18285    1039.3473   -294.38439            0   -6.8205251            0            0            0            0            0            0 
14948000     546.8712    81121.016    509.26452   -275.65887    775.70863    500.04976    1147.0349   -275.65887            0   -6.4556581            0            0            0            0            0            0 
14949000    521.60684     78978.87    486.55572   -290.71886    741.11872    450.39986    1051.2001   -290.71886            0   -6.6307551            0            0            0            0            0            0 
14950000    439.29203    79652.385     448.9112   -281.60621    683.77881     402.1726    912.47545   -281.60621            0   -6.5746876            0            0            0            0            0            0 
14951000    472.13791    84770.619    502.99116   -272.26767    766.15308    493.88541     1077.586   -272.26767            0   -6.1777247            0            0            0            0            0            0 
14952000    455.85096    83859.704    490.71424     -279.786    747.45296    467.66695    1025.1762     -279.786            0   -6.2448294            0            0            0            0            0            0 
14953000    468.99223     79608.02     493.9868   -292.70613     752.4377    459.73157    1004.2322   -292.70613            0   -6.5783516            0            0            0            0            0            0 
14954000    427.14209    85375.673     459.9506   -276.57145    700.59396    424.02251    955.86423   -276.57145            0   -6.1339434            0            0            0            0            0            0 
14955000    450.41881    82312.003    467.35935   -287.42472    711.87892    424.45421    965.15322   -287.42472            0   -6.3622501            0            0            0            0            0            0 
14956000    540.14936    81664.434    449.24117   -270.81599    684.28142    413.46543     1056.779   -270.81599            0   -6.4127004            0            0            0            0            0            0 
14957000    532.89577    83155.213     492.3925   -266.98296    750.00927    483.02631    1129.2869   -266.98296            0   -6.2977356            0            0            0            0            0            0 
14958000    569.55599    79977.179    492.73974   -277.51671    750.53819    473.02148    1137.3431   -277.51671            0   -6.5479872            0            0            0            0            0            0 
14959000    618.20706    75191.645    479.42036   -290.15248    730.25019    440.09772    1118.0193   -290.15248            0   -6.9647305            0            0            0            0            0            0 
14960000    382.19276    83069.508    454.60691   -289.53463    692.45449    402.91986    865.94011   -289.53463            0   -6.3042331            0            0            0            0            0            0 
14961000    458.38996    80305.242    471.46923    -284.8212    718.13906    433.31787    970.17024    -284.8212            0   -6.5212374            0            0            0            0            0            0 
14962000    520.44434    79688.973    473.94006   -280.73657    721.90263    441.16607    1046.0171   -280.73657            0   -6.5716689            0            0            0            0            0            0 
14963000    512.87523    81035.431    496.44423   -275.04645    756.18084    481.13439    1087.2599   -275.04645            0   -6.4624762            0            0            0            0            0            0 
14964000    546.79612    79209.001     474.3957   -287.34207    722.59666    435.25458    1066.9036   -287.34207            0   -6.6114904            0            0            0            0            0            0 
14965000    513.72495    85121.081    487.76538   -259.90426    742.96127    483.05701     1120.797   -259.90426            0   -6.1522897            0            0            0            0            0            0 
14966000    581.33766    80027.963     459.8385   -260.26739    700.42321    440.15582      1118.65   -260.26739            0    -6.543832            0            0            0            0            0            0 
14967000    451.08126    84590.811    477.04433   -273.76183    726.63102    452.86919    1009.3547   -273.76183            0   -6.1908562            0            0            0            0            0            0 
14968000    448.39347    80857.653    476.71842   -293.17552     726.1346    432.95909     961.7163   -293.17552            0    -6.476685            0            0            0            0            0            0 
14969000    470.56134    77336.939    447.90622   -301.56271    682.24804    380.68534    911.42203   -301.56271            0   -6.7715318            0            0            0            0            0            0 
14970000    526.43272    79393.601    489.60485   -288.27194    745.76314     457.4912    1067.0341   -288.27194            0   -6.5961178            0            0            0            0            0            0 
14971000    528.07389    82051.026    474.82057   -263.42233    723.24381    459.82147    1091.7306   -263.42233            0   -6.3824862            0            0            0            0            0            0 
14972000    544.34465    81008.755    482.96968    -266.7431    735.65648    468.91338    1112.0183    -266.7431            0   -6.4646043            0            0            0            0            0            0 
14973000    487.76197     82050.12    455.83002   -271.05416    694.31753    423.26337    1006.9276   -271.05416            0   -6.3825567            0            0            0            0            0            0 
14974000    474.60451    80837.299    479.91833   -288.95456    731.00869    442.05413    1001.5792   -288.95456            0   -6.4783157            0            0            0            0            0            0 
14975000    452.58206    77214.825    475.22995   -305.04207    723.86738    418.82531    928.47754   -305.04207            0   -6.7822409            0            0            0            0            0            0 
14976000    454.45887    85767.519    488.49921   -269.09635    744.07904    474.98269    1043.4341   -269.09635            0   -6.1059193            0            0            0            0            0            0 
14977000    522.54851    81819.772    476.41046   -272.62271    725.66552    453.04281    1076.5777   -272.62271            0   -6.4005256            0            0            0            0            0            0 
14978000    409.31059    80962.338    450.16495   -290.59208    685.68853    395.09644    878.39101   -290.59208            0   -6.4683106            0            0            0            0            0            0 
14979000    439.44543    78506.898    470.58449   -296.38563    716.79144    420.40581     923.5456   -296.38563            0   -6.6706182            0            0            0            0            0            0 
14980000    466.84674    84006.348    487.45737   -269.76106    742.49211    472.73105    1044.6867   -269.76106            0   -6.2339282            0            0            0            0            0            0 
14981000     494.1924    78790.035    483.04436   -286.94599    735.77024    448.82425    1016.6868   -286.94599            0   -6.6466469            0            0            0            0            0            0 
14982000     467.1891    77375.926    427.46445   -288.83844    651.11125    362.27282    889.47166   -288.83844            0   -6.7681199            0            0            0            0            0            0 
14983000    457.86656    85232.807    460.78261   -259.63871    701.86128    442.22257    1011.3658   -259.63871            0    -6.144225            0            0            0            0            0            0 
14984000    488.22176    78181.256    478.81909   -289.83821    729.33434    439.49613    996.16338   -289.83821            0   -6.6984028            0            0            0            0            0            0 
14985000     439.7375    79735.423    479.67489   -297.42189    730.63788    433.21599    944.56885   -297.42189            0   -6.5678405            0            0            0            0            0            0 
14986000    488.47352    81178.711    482.78783   -278.18103     735.3795    457.19847    1035.5063   -278.18103            0     -6.45107            0            0            0            0            0            0 
14987000    555.19715     78912.08    495.51385   -283.55247    754.76369    471.21122    1110.1608   -283.55247            0   -6.6363673            0            0            0            0            0            0 
14988000    509.00434    85970.563    500.35858   -256.88239    762.14315    505.26076    1143.4466   -256.88239            0   -6.0914984            0            0            0            0            0            0 
14989000     604.6009    79300.391     443.7056   -261.80054    675.84967    414.04913    1113.2791   -261.80054            0   -6.6038709            0            0            0            0            0            0 
14990000    473.54396     79812.29    469.73236   -291.62832    715.49348    423.86517    975.06105   -291.62832            0   -6.5615151            0            0            0            0            0            0 
14991000    531.34894    79824.987    446.56859   -274.24297    680.21057    405.96761    1024.5457   -274.24297            0   -6.5604714            0            0            0            0            0            0 
14992000    501.89949    82375.603    494.29657   -270.95852    752.90954    481.95102    1084.9148   -270.95852            0    -6.357338            0            0            0            0            0            0 
14993000    643.17841    75002.398    500.71075    -287.0799    762.67958    475.59968    1179.1295    -287.0799            0    -6.982304            0            0            0            0            0            0 
14994000     513.6933    81301.512    457.77513   -273.52943     697.2803    423.75087    1032.8366   -273.52943            0    -6.441326            0            0            0            0            0            0 
14995000     525.7969    82919.839    473.88055   -268.59013    721.81198    453.22185    1089.0685   -268.59013            0   -6.3156122            0            0            0            0            0            0 
14996000    486.32018    81991.724    460.66703   -279.69337    701.68523    421.99186    1003.5166   -279.69337            0   -6.3871025            0            0            0            0            0            0 
14997000    522.54351    81812.674    471.76349   -266.20681    718.58729    452.38048    1075.8553   -266.20681            0   -6.4010809            0            0            0            0            0            0 
14998000    415.32842    92894.504    485.46833   -242.13134    739.46242    497.33108     1060.006   -242.13134            0   -5.6374653            0            0            0            0            0            0 
14999000    474.50431    78008.672    452.86252   -289.56765    689.79744    400.22978    940.06217   -289.56765            0   -6.7132222            0            0            0            0            0            0 
15000000    444.44822    81838.995    460.90652   -279.91968    702.05001    422.13034    952.59609   -279.91968            0   -6.3990222            0            0            0            0            0            0 
Loop time of 1199.49 on 8 procs for 5000000 steps with 512 atoms

Pair  time (%) = 585.73 (48.8315)
Bond  time (%) = 0.469239 (0.0391197)
Neigh time (%) = 26.0788 (2.17415)
Comm  time (%) = 427.037 (35.6015)
Outpt time (%) = 0.274118 (0.0228528)
Other time (%) = 159.903 (13.3309)

Nlocal:    64 ave 69 max 56 min
Histogram: 1 0 0 1 1 0 2 0 0 3
Nghost:    1050.12 ave 1071 max 1018 min
Histogram: 1 0 1 0 1 0 1 2 0 2
Neighs:    4021.12 ave 4430 max 3555 min
Histogram: 1 1 1 0 0 1 2 0 0 2

Total # of neighbors = 32169
Ave neighs/atom = 62.8301
Ave special neighs/atom = 0
Neighbor list builds = 101919
Dangerous builds = 0

Averages
Group Pressure(MPa) Volume(m3) Temperature(K) PE(J) KE(J) ET(J) ET^2(J) H(J) H^2(J^2) V^2(m6) V*H(m3*J) Hconf(J) Uext*Hconf(J^2) V*Hconf(m3*J) Uext(J)
Block1 49.917860957169203573 8.1061596660804864684e-26 480.22453057324383963 -1.9583695981759365408e-18 5.082065731037676898e-18 3.1236961328617365053e-18 9.7963015290013649794e-36 7.1625148613678284344e-18 5.1551728747580343982e-35 6.5791914687066834007e-51 5.8057652439780613594e-43 2.0804491303301723365e-18 -4.0535607693652717352e-36 1.6862673367349488415e-43 -1.9583695981759365408e-18
Block2 49.846738639975022522 8.1098964550842063061e-26 479.75854034229780609 -1.9554272501953187595e-18 5.0771343024393395154e-18 3.1217070522440196004e-18 9.7865644579724287108e-36 7.1578275373068440365e-18 5.1484454351451897784e-35 6.5847101694672794069e-51 5.8052692485864575608e-43 2.0806932348674933508e-18 -4.0464320786717721625e-36 1.6879017137009590583e-43 -1.9554272501953187595e-18
Block3 50.311403368715076567 8.097172653711462293e-26 480.25056722289480149 -1.9580206031001820821e-18 5.0823412687424667027e-18 3.1243206656422888577e-18 9.8020201228629022609e-36 7.1909312017121520517e-18 5.1955912426382031285e-35 6.5642216507830393253e-51 5.8223878495465359251e-43 2.1085899329696795712e-18 -4.1078728771690953098e-36 1.7072743161204913725e-43 -1.9580206031001820821e-18
Block4 49.944738604038917629 8.0946002699861845655e-26 480.34027562058514604 -1.9626936918652129168e-18 5.0832906246055363212e-18 3.1205969327403195526e-18 9.7793130622776164745e-36 7.1575832529285047906e-18 5.1455413365258668068e-35 6.5594942461895744496e-51 5.7947117758535120228e-43 2.0742926283229611508e-18 -4.0511735695173491095e-36 1.6797108818999741946e-43 -1.9626936918652129168e-18
Block5 49.832959109806708398 8.100545095450375385e-26 478.73021162087343328 -1.9593187780820824911e-18 5.0662518218022966037e-18 3.1069330437202233571e-18 9.6935410297210275002e-36 7.1369160573815966726e-18 5.1178352329567587915e-35 6.5690614897465515793e-51 5.7809810751539947476e-43 2.0706642355792912096e-18 -4.0379974694744946462e-36 1.6770754623889877387e-43 -1.9593187780820824911e-18
Ave_blocks 49.970740135940978632 8.1016748280625432332e-26 479.86082507597905078 -1.9587659842837467892e-18 5.0782167497254636704e-18 3.1194507654417172665e-18 9.7715480403670661142e-36 7.1611545821393867379e-18 5.152517224404810153e-35 6.5713358049786251576e-51 5.8018230386237123231e-43 2.082937832413919986e-18 -4.0594073528395965927e-36 1.6876459421690721216e-43 -1.9587659842837467892e-18
Stdev_blocks 0.17543301145299763921 5.6445400976311211607e-29 0.6004668860405729669 2.3491414686005413794e-21 6.3545529015948731672e-21 6.4005774614776347339e-21 3.9779806646343970852e-38 1.7319510009493742029e-20 2.502201644890477733e-37 9.344423923727596933e-54 1.3676887759388437922e-45 1.3376418445631973648e-20 2.480977879825083273e-38 1.060131369455371818e-45 2.3491414686005413794e-21






Properties
Group rho(kg/m3) Cp(J/K) Cp_conf(J/K) Cp_id(J/K) Cp2(J/K) kT(1/Pa) aP(1/K) aP2(1/K) Cv(J/K) uJT(K/Pa) sos(m/s) Cv2(J/K) uJT2(K/Pa) sos2(m/s) CvNVT(J/K)
Block1 168.25765494420784307 7.855222208358123095e-20 -8.3797260349463976077e-22 3.852570244199798744e-20 3.7687729838503347679e-20 1.5273844397310817649e-08 -0.00010990481767498504987 -6.894475615296279049e-05 7.852143669832892887e-20 -1.086410333841938033e-06 623.91226331276868677 3.7675615112050693513e-20 -2.222088261540838113e-06 623.89027553954429095 1.2193499390565075168e-20
Block2 168.18012703022407095 7.8657591994209667183e-20 6.7539966359398718765e-22 3.850185438816023985e-20 3.9177254051754225533e-20 1.4274718671931280379e-08 0.00013395732040311360517 0.00018665581132535833103 7.8608681351563810736e-20 -9.6477608589998079158e-07 645.60063795040662171 3.9082291254808283845e-20 -1.8846796898758683271e-06 646.18350987309315769 1.3062287861981952103e-20
Block3 168.44440329339533946 7.7385306851136745975e-20 -6.7822100652042358365e-22 3.852703500899984482e-20 3.7848814002479423493e-20 1.4530289097881638016e-08 -9.0481479917506197068e-05 -3.3880612180670523356e-05 7.7363396647115355097e-20 -1.0918126157603634678e-06 639.28728900122780487 3.7845741943645299486e-20 -2.1741561658882326229e-06 639.22272375559987267 1.2762626551880260271e-20
Block4 168.49793325499857133 7.0448430085331042855e-20 2.4335391449009291275e-22 3.8531626392245699607e-20 3.877498030673579252e-20 1.3484800745698554765e-08 0.00036231229923295156471 0.00025359731438210551769 7.0069929957418984215e-20 -9.4904473495915692226e-07 665.19696964819581808 3.8589546387891143168e-20 -1.8332885380215809345e-06 664.99962471743913284 1.2929682214458931252e-20
Block5 168.37427604520902946 7.6727444532042112835e-20 -1.4683861731177527488e-21 3.8449237917448970714e-20 3.6980851744331218718e-20 1.3407249214367578562e-08 -0.00012092843703820328012 -0.00010746002110113127704 7.6685146293973481546e-20 -1.1168758042306002253e-06 665.75131046379897271 3.6947450761925554715e-20 -2.3031574560329877722e-06 665.8685508285736887 1.2801972552362953008e-20
Ave_blocks 168.35087891360697654 7.6354199109260157552e-20 -4.1316524100974719856e-22 3.8507091229770553301e-20 3.8093925988760801589e-20 1.4194180425437973543e-08 3.4990977001074127209e-05 4.5993547254539852921e-05 7.6249718189680109685e-20 -1.0417839149384079092e-06 647.94969407527969452 3.8028129092064196149e-20 -2.0834740222719014269e-06 648.03293694285002857 1.2750013714249835564e-20
Stdev_blocks 0.11727414792140457289 3.040313367502285625e-21 7.7203601246106000376e-22 3.0726327489087369207e-23 7.8758417302745864252e-22 6.9391786286047193077e-10 0.00018867038853425741464 0.00014561860405583511042 3.1731710359770685438e-21 7.0233811293411215108e-08 15.954431765120194342 7.418684622841859935e-22 1.8857886026295333738e-07 15.936661841469966561 2.9744340984687102819e-22






