LAMMPS (28 Oct 2012)
Scanning data file ...
Reading data file ...
  orthogonal box = (0 0 0) to (100 100 100)
  2 by 2 by 2 MPI processor grid
  512 atoms
Finding 1-2 1-3 1-4 neighbors ...
  0 = max # of 1-2 neighbors
  0 = max # of 1-3 neighbors
  0 = max # of 1-4 neighbors
  1 = max # of special neighbors
WARNING: Resetting reneighboring criteria during minimization (min.cpp:173)
Setting up minimization ...
Memory usage per processor = 4.05499 Mbytes
Step Temp E_pair E_mol TotEng Press 
       0       400.15    1409.7233            0    2019.2294    440.37837 
     701       400.15   -217.27527            0    392.23079    27.633475 
Loop time of 0.0527065 on 8 procs for 701 steps with 512 atoms

Minimization stats:
  Stopping criterion = energy tolerance
  Energy initial, next-to-last, final = 
         1409.72334813     -217.256630745     -217.275265106
  Force two-norm initial, final = 5034.49 0.337455
  Force max component initial, final = 2457.89 0.147661
  Final line search alpha, max atom move = 0.254892 0.0376377
  Iterations, force evaluations = 701 710

Pair  time (%) = 0.00896689 (17.0129)
Bond  time (%) = 5.84126e-05 (0.110826)
Neigh time (%) = 0.00314939 (5.97533)
Comm  time (%) = 0.0202854 (38.4874)
Outpt time (%) = 0 (0)
Other time (%) = 0.0202465 (38.4136)

Nlocal:    64 ave 74 max 52 min
Histogram: 1 0 0 1 1 2 0 2 0 1
Nghost:    235.125 ave 266 max 224 min
Histogram: 4 0 2 0 0 1 0 0 0 1
Neighs:    316.25 ave 371 max 226 min
Histogram: 1 0 0 1 1 1 0 1 0 3

Total # of neighbors = 2530
Ave neighs/atom = 4.94141
Ave special neighs/atom = 0
Neighbor list builds = 60
Dangerous builds = 0
Setting up run ...
Memory usage per processor = 3.36354 Mbytes
Step Temp E_pair E_mol TotEng Press Volume 
     701       400.15   -217.27527            0    392.23079    27.633475      1000000 
 5000701    419.99068   -334.18066            0     305.5466    416.40332    71699.537 
Loop time of 1306.21 on 8 procs for 5000000 steps with 512 atoms

Pair  time (%) = 698.37 (53.4652)
Bond  time (%) = 0.463812 (0.0355081)
Neigh time (%) = 31.0797 (2.37937)
Comm  time (%) = 418.968 (32.0749)
Outpt time (%) = 4.42863e-05 (3.39043e-06)
Other time (%) = 157.334 (12.045)

Nlocal:    64 ave 76 max 54 min
Histogram: 1 1 0 1 1 3 0 0 0 1
Nghost:    1096.88 ave 1134 max 1060 min
Histogram: 1 0 2 0 2 1 0 0 0 2
Neighs:    4628 ave 5834 max 3717 min
Histogram: 1 0 1 1 4 0 0 0 0 1

Total # of neighbors = 37024
Ave neighs/atom = 72.3125
Ave special neighs/atom = 0
Neighbor list builds = 92900
Dangerous builds = 5
Setting up run ...
Memory usage per processor = 3.96692 Mbytes
Step Press Volume Temp PotEng KinEng TotEng Enthalpy E_vdwl E_coul E_tail E_long E_bond E_angle E_dihed E_impro E_mol 
10000000    416.40332    71699.537    419.99068   -334.18066    639.72726     305.5466    740.96465   -334.18066            0    -7.303946            0            0            0            0            0            0 
10001000    675.59887    66092.042    426.81585   -351.03106    650.12331    299.09225    950.29163   -351.03106            0     -7.92364            0            0            0            0            0            0 
10002000    548.75217    67435.181    401.48514   -343.90365    611.53973    267.63608    807.31899   -343.90365            0    -7.765821            0            0            0            0            0            0 
10003000    478.41007    66217.772    401.43244   -358.31747    611.45946    253.14199    715.15135   -358.31747            0    -7.908595            0            0            0            0            0            0 
10004000    460.23775    68742.863    371.54929   -346.03309    565.94162    219.90853    681.31719   -346.03309            0   -7.6180933            0            0            0            0            0            0 
10005000    443.23445    72907.583    411.92587   -329.26669    627.44299     298.1763    769.45965   -329.26669            0   -7.1829229            0            0            0            0            0            0 
10006000     447.6023    63767.293    403.11264   -383.64932    614.01873    230.36941    646.63085   -383.64932            0   -8.2125103            0            0            0            0            0            0 
10007000    507.02566    65374.307    406.37243   -364.44261    618.98402    254.54141     737.9484   -364.44261            0   -8.0106325            0            0            0            0            0            0 
10008000    564.90508     64774.06    423.37621   -360.60471    644.88407    284.27936    817.92442   -360.60471            0   -8.0848652            0            0            0            0            0            0 
10009000    423.31198    68526.956    399.37552   -358.03751    608.32636    250.28885    673.34488   -358.03751            0   -7.6420955            0            0            0            0            0            0 
10010000    463.55575    68844.526     402.9093    -344.0685      613.709     269.6405    735.06289    -344.0685            0   -7.6068437            0            0            0            0            0            0 
10011000    393.06823    64749.361    418.98847   -381.22769     638.2007      256.973    628.14852   -381.22769            0   -8.0879492            0            0            0            0            0            0 
10012000    533.77332    65990.727    399.68971   -356.66127    608.80494    252.14367    765.85089   -356.66127            0   -7.9358051            0            0            0            0            0            0 
10013000    456.34113    66633.713    376.23667   -358.90393    573.08141    214.17748    657.64265   -358.90393            0   -7.8592281            0            0            0            0            0            0 
10014000    461.44401    66086.947    395.98468   -367.08396    603.16146     236.0775    680.82201   -367.08396            0   -7.9242508            0            0            0            0            0            0 
10015000    518.05826    70404.421    409.71979   -331.82335     624.0827    292.25935    824.18928   -331.82335            0   -7.4383048            0            0            0            0            0            0 
10016000    475.32387    72015.655    406.16591   -324.88859    618.66945    293.78086    793.00138   -324.88859            0   -7.2718847            0            0            0            0            0            0 
10017000    485.97297    67026.851    388.34163   -344.71579    591.51961    246.80382    721.85109   -344.71579            0   -7.8131306            0            0            0            0            0            0 
10018000    498.28575    65829.022    405.48216    -362.9408    617.62797    254.68717    733.06578    -362.9408            0   -7.9552989            0            0            0            0            0            0 
10019000    441.72827     64124.63    408.11439   -379.78725    621.63736    241.85011    654.95083   -379.78725            0   -8.1667457            0            0            0            0            0            0 
10020000    506.73833    67989.628    393.20205   -345.41339    598.92298    253.50959    755.97054   -345.41339            0   -7.7024917            0            0            0            0            0            0 
10021000    475.05699    66422.228    399.04029   -368.53809    607.81574    239.27765    699.46538   -368.53809            0   -7.8842514            0            0            0            0            0            0 
10022000    371.97085    67398.158    396.46344   -366.97848    603.89071    236.91223    602.53466   -366.97848            0   -7.7700869            0            0            0            0            0            0 
10023000    490.41303    62119.337    399.89619   -388.76242    609.11944    220.35702    664.64515   -388.76242            0   -8.4303788            0            0            0            0            0            0 
10024000    597.82066    66220.043     414.3207   -349.87969    631.09078    281.21109    858.55723   -349.87969            0   -7.9083239            0            0            0            0            0            0 
10025000    499.84004    67999.213    418.82366   -352.88516    637.94966    285.06449    780.75525   -352.88516            0    -7.701406            0            0            0            0            0            0 
10026000    531.18742     66866.25    410.22612   -352.28906    624.85394    272.56488    790.56593   -352.28906            0   -7.8318964            0            0            0            0            0            0 
10027000    455.64128    69043.858     389.3777   -345.19103    593.09775    247.90672    706.70735   -345.19103            0   -7.5848824            0            0            0            0            0            0 
10028000    584.12714    64995.296    404.30542   -364.04219    615.83557    251.79338    805.48149   -364.04219            0   -8.0573453            0            0            0            0            0            0 
10029000    425.51478    70488.292     412.2893   -345.36515    627.99657    282.63142    720.06037   -345.36515            0   -7.4294544            0            0            0            0            0            0 
10030000      605.562      64769.2    412.21101   -366.43351    627.87731    261.44379    833.45303   -366.43351            0   -8.0854718            0            0            0            0            0            0 
10031000    580.32212    65785.058    412.53992   -355.85026    628.37831    272.52805    829.29349   -355.85026            0   -7.9606154            0            0            0            0            0            0 
10032000     542.1106    67023.103    400.39335    -351.0437    609.87672    258.83301    788.72618    -351.0437            0   -7.8135676            0            0            0            0            0            0 
10033000     548.5836    67514.617    405.82668   -342.01836    618.15274    276.13437    816.28703   -342.01836            0   -7.7566839            0            0            0            0            0            0 
10034000    467.77221    66031.692    389.19736   -366.83279    592.82306    225.99027    676.45701   -366.83279            0   -7.9308819            0            0            0            0            0            0 
10035000    438.27728    70068.645     400.6338    -346.2503    610.24297    263.99267    711.85916    -346.2503            0     -7.47395            0            0            0            0            0            0 
10036000    573.77192    65430.408    416.00582   -351.05774    633.65755    282.59981    830.11328   -351.05774            0    -8.003764            0            0            0            0            0            0 
10037000    545.42414    69425.908    420.44017   -337.54964    640.41192    302.86228    855.10731   -337.54964            0   -7.5431429            0            0            0            0            0            0 
10038000    427.38268    69037.738    404.64424   -349.39862    616.35165    266.95302    697.26096   -349.39862            0   -7.5855548            0            0            0            0            0            0 
10039000    502.88762     63567.43    409.94291   -377.62931    624.42255    246.79323    713.00313   -377.62931            0   -8.2383313            0            0            0            0            0            0 
10040000    411.82587    67122.951    380.30755   -357.63796    579.28215    221.64419    624.78852   -357.63796            0   -7.8019446            0            0            0            0            0            0 
10041000    448.03695     65166.14    392.53725   -370.79528    597.91036    227.11508    652.92102   -370.79528            0   -8.0362217            0            0            0            0            0            0 
10042000    480.44187     65146.36    384.87579    -372.6424    586.24046    213.59806    670.06245    -372.6424            0   -8.0386617            0            0            0            0            0            0 
10043000    464.16284     68728.32    395.69278   -351.02576    602.71685    251.69109    716.93638   -351.02576            0   -7.6197053            0            0            0            0            0            0 
10044000    499.32314    69698.112    384.50422   -336.08907     585.6745    249.58543    757.13515   -336.08907            0   -7.5136834            0            0            0            0            0            0 
10045000    517.93546    66106.242    422.64911   -359.59109    643.77656    284.18547    783.52276   -359.59109            0   -7.9219379            0            0            0            0            0            0 
10046000    466.26928    66560.879     418.9415    -364.9527    638.12916    273.17645    725.79437    -364.9527            0    -7.867828            0            0            0            0            0            0 
10047000    411.64601    68606.947    388.97477   -353.47787    592.48401    239.00614    650.88347   -353.47787            0   -7.6331854            0            0            0            0            0            0 
10048000    471.05636     65257.96    389.64273   -364.64641    593.50144    228.85504    677.16899   -364.64641            0   -8.0249144            0            0            0            0            0            0 
10049000    571.95442    66833.858    397.36554   -345.05715    605.26478    260.20763    817.69347   -345.05715            0   -7.8356923            0            0            0            0            0            0 
10050000    399.96412    69845.276    414.21393   -344.89005    630.92815     286.0381    693.45024   -344.89005            0    -7.497852            0            0            0            0            0            0 
10051000    477.32062    68042.644    395.76892    -344.5406    602.83281    258.29222    731.95282    -344.5406            0   -7.6964902            0            0            0            0            0            0 
10052000     492.7461    66879.498     382.9524   -356.97235    583.31077    226.33841    706.94762   -356.97235            0   -7.8303451            0            0            0            0            0            0 
10053000    460.99937    64743.232     382.4045   -371.87432    582.47622     210.6019    645.88379   -371.87432            0   -8.0887149            0            0            0            0            0            0 
10054000    444.11801    69831.877    424.11271   -345.83567    646.00591    300.17024     752.4717   -345.83567            0   -7.4992907            0            0            0            0            0            0 
10055000    543.67311    68041.058    407.63119   -336.77964    620.90136    284.12172    823.61346   -336.77964            0   -7.6966696            0            0            0            0            0            0 
10056000    458.41016    65984.195    390.30277   -364.34016    594.50681    230.16665    671.30016   -364.34016            0   -7.9365906            0            0            0            0            0            0 
10057000    405.43105    66124.503    406.20541   -371.42013    618.72961    247.30948    638.29018   -371.42013            0   -7.9197502            0            0            0            0            0            0 
10058000    421.21765    66763.462    386.75453    -361.9699    589.10215    227.13225    637.26203    -361.9699            0   -7.8439543            0            0            0            0            0            0 
10059000    440.42951    66434.685    393.65111   -371.17842    599.60698    228.42856    655.15267   -371.17842            0   -7.8827731            0            0            0            0            0            0 
10060000    507.91691    62879.677     414.8941   -390.46408    631.96418     241.5001    707.27798   -390.46408            0   -8.3284389            0            0            0            0            0            0 
10061000    439.45395    68050.322     430.0508   -352.17945    655.05076    302.87131    739.00482   -352.17945            0   -7.6956218            0            0            0            0            0            0 
10062000    434.00877    66053.779    384.85195   -363.12459    586.20416    223.07957    641.17177   -363.12459            0   -7.9282299            0            0            0            0            0            0 
10063000    462.93518    66047.768    375.64748   -361.33656    572.18397    210.84741    656.76461   -361.33656            0   -7.9289514            0            0            0            0            0            0 
10064000    538.15929    70112.671    425.24679   -327.69032    647.73333    320.04301     870.3224   -327.69032            0   -7.4692568            0            0            0            0            0            0 
10065000    468.12722    67775.548    422.72386   -364.09066    643.89042    279.79977    742.51395   -364.09066            0   -7.7268213            0            0            0            0            0            0 
10066000    490.06153    67785.071     374.6981   -351.60385    570.73787    219.13402    703.59696   -351.60385            0   -7.7257357            0            0            0            0            0            0 
10067000    457.23007    70167.564    393.80304   -337.30342     599.8384    262.53498    730.42854   -337.30342            0   -7.4634135            0            0            0            0            0            0 
10068000    560.01649    64175.347    404.81764   -365.41333    616.61578    251.20246    775.33959   -365.41333            0   -8.1602916            0            0            0            0            0            0 
10069000    484.55848    67849.138    391.09997   -346.22142     595.7211    249.49968    728.97517   -346.22142            0   -7.7184407            0            0            0            0            0            0 
10070000    562.74181    65158.261    424.06629   -366.23156     645.9352    279.70364    814.45828   -366.23156            0   -8.0371934            0            0            0            0            0            0 
10071000    524.42129    69187.944    407.46805   -335.08525    620.65286    285.56761    814.72715   -335.08525            0   -7.5690866            0            0            0            0            0            0 
10072000    579.56311    63720.615    402.59391   -371.40548    613.22861    241.82313    780.41102   -371.40548            0   -8.2185262            0            0            0            0            0            0 
10073000    432.93539    67676.743    369.49636   -350.48038    562.81461    212.33424    639.63968   -350.48038            0   -7.7381021            0            0            0            0            0            0 
10074000    457.00546    69402.029    410.29938   -348.84414    624.96552    276.12139    738.68284   -348.84414            0   -7.5457383            0            0            0            0            0            0 
10075000    675.96282    65148.181    427.32258   -350.49114    650.89516    300.40402    942.64942   -350.49114            0   -8.0384369            0            0            0            0            0            0 
10076000    567.81174    66670.807    386.91551   -345.52439    589.34736    243.82297    795.92071   -345.52439            0   -7.8548554            0            0            0            0            0            0 
10077000    498.45572    69744.636    374.76925   -337.40281    570.84624    233.44343    740.44965   -337.40281            0   -7.5086713            0            0            0            0            0            0 
10078000    515.38926    68254.647    414.66764   -349.83055    631.61924    281.78869    794.81953   -349.83055            0   -7.6725844            0            0            0            0            0            0 
10079000    556.11184    67022.367    406.82952   -352.22805    619.68026    267.45221    811.02511   -352.22805            0   -7.8136534            0            0            0            0            0            0 
10080000    372.06756    66118.037    383.34943   -377.34692    583.91553    206.56862    565.33988   -377.34692            0   -7.9205247            0            0            0            0            0            0 
10081000    534.95956     67006.22    388.40967   -349.63846    591.62326    241.98479    764.75636   -349.63846            0   -7.8155363            0            0            0            0            0            0 
10082000    479.78908     70330.65    423.03114   -332.67931    644.35847    311.67916      803.799   -332.67931            0    -7.446107            0            0            0            0            0            0 
10083000    462.89625    63261.701    393.81256    -382.4164    599.85291    217.43651    644.50784    -382.4164            0   -8.2781452            0            0            0            0            0            0 
10084000    460.43419    67581.383    398.60172   -353.38948    607.14772    253.75825    707.56456   -353.38948            0   -7.7490208            0            0            0            0            0            0 
10085000     511.6373    68875.483    412.60922   -341.41656    628.48386    287.06731    800.99586   -341.41656            0   -7.6034246            0            0            0            0            0            0 
10086000    587.24202    65911.703    416.40419   -353.53726    634.26434    280.72707    845.21615   -353.53726            0   -7.9453196            0            0            0            0            0            0 
10087000    511.69556    67989.268    395.51627   -342.84178    602.44799     259.6062    766.97985   -342.84178            0   -7.7025324            0            0            0            0            0            0 
10088000    457.13468    67310.215    396.78009   -353.18141    604.37303    251.19162    699.93808   -353.18141            0   -7.7802388            0            0            0            0            0            0 
10089000    535.10374    65224.191    415.49622   -355.75248    632.88133    277.12885    786.13446   -355.75248            0   -8.0290693            0            0            0            0            0            0 
10090000    469.39232    67234.714     403.2493   -350.51616    614.22689    263.71074    723.97307   -350.51616            0   -7.7889755            0            0            0            0            0            0 
10091000     554.6274    65528.891    421.57602   -355.92654    642.14203     286.2155    816.25718   -355.92654            0   -7.9917352            0            0            0            0            0            0 
10092000    505.37046    67412.486    403.35692   -346.61621    614.39081    267.77459     764.6255   -346.61621            0   -7.7684354            0            0            0            0            0            0 
10093000    512.86211    65149.644    424.82531   -363.67642    647.09134    283.41493     770.7061   -363.67642            0   -8.0382564            0            0            0            0            0            0 
10094000    560.08401    67658.822    420.86848   -337.50603    641.06432    303.55829    856.21252   -337.50603            0   -7.7401517            0            0            0            0            0            0 
10095000    441.62091    67313.967     381.3875   -354.74094    580.92713    226.18619    659.72771   -354.74094            0   -7.7798052            0            0            0            0            0            0 
10096000    386.56157    64863.556    397.62738   -381.85576    605.66362    223.80786    589.48291   -381.85576            0   -8.0737101            0            0            0            0            0            0 
10097000    521.12058    65178.915    386.43134   -352.57239    588.60987    236.03747    731.39782   -352.57239            0   -8.0346466            0            0            0            0            0            0 
10098000    466.15628    68400.359    397.16679   -349.41133    604.96205    255.55072    720.56449   -349.41133            0   -7.6562397            0            0            0            0            0            0 
10099000    668.12346    63469.994    400.64187   -364.40722    610.25526    245.84804    864.29302   -364.40722            0   -8.2509783            0            0            0            0            0            0 
10100000    466.11659    67363.142    379.78461   -353.58789    578.48562    224.89773    682.82107   -353.58789            0   -7.7741259            0            0            0            0            0            0 
10101000    510.94095    69283.331    402.94844   -336.78721    613.76861     276.9814    793.24959   -336.78721            0   -7.5586658            0            0            0            0            0            0 
10102000    520.64734    67090.865    413.05418   -346.47955    629.16162    282.68207    792.11022   -346.47955            0   -7.8056758            0            0            0            0            0            0 
10103000    411.70584    68349.729    396.27774   -353.72933    603.60786    249.87853    660.27131   -353.72933            0   -7.6619111            0            0            0            0            0            0 
10104000    439.76668    63704.779    387.53792   -383.06596    590.29541    207.22945    615.80298   -383.06596            0   -8.2205692            0            0            0            0            0            0 
10105000    467.95684    65011.656    392.24165   -371.30553     597.4601    226.15457     669.8377   -371.30553            0   -8.0553178            0            0            0            0            0            0 
10106000    444.44809    71079.573    395.17222   -325.60045    601.92393    276.32348    737.04845   -325.60045            0   -7.3676518            0            0            0            0            0            0 
10107000     517.7797     65422.63    410.79078   -367.80593    625.71403     257.9081    751.93308   -367.80593            0   -8.0047156            0            0            0            0            0            0 
10108000    494.03027     69152.15     412.9306   -345.19985    628.97339    283.77354    782.00958   -345.19985            0   -7.5730045            0            0            0            0            0            0 
10109000    487.26551    65829.903    402.91493   -364.87639    613.71758    248.84119     716.6461   -364.87639            0   -7.9551925            0            0            0            0            0            0 
10110000     597.8005    65303.453    387.88079   -344.89238    590.81766    245.92528    815.26083   -344.89238            0    -8.019324            0            0            0            0            0            0 
10111000    477.63708    67144.823    403.31052   -358.17242    614.32014    256.14772    723.86828   -358.17242            0   -7.7994032            0            0            0            0            0            0 
10112000    425.52278    70982.596    414.77086   -340.37171    631.77646    291.40475    731.90948   -340.37171            0   -7.3777176            0            0            0            0            0            0 
10113000    431.63347    65968.209    373.50586   -361.85194    568.92185    207.06991    622.33526   -361.85194            0   -7.9385139            0            0            0            0            0            0 
10114000    517.75217    66065.368    417.98105   -350.22181     636.6662    286.44439    785.29634   -350.22181            0   -7.9268391            0            0            0            0            0            0 
10115000    501.07289    67801.904    376.10249   -343.36701    572.87704    229.51003    724.98154   -343.36701            0   -7.7238177            0            0            0            0            0            0 
10116000    477.71703    74250.256    414.07835   -313.66399    630.72164    317.05765    834.36014   -313.66399            0   -7.0530335            0            0            0            0            0            0 
10117000    461.74699    66794.095    395.32097   -360.30275    602.15051    241.84776    691.64629   -360.30275            0   -7.8403569            0            0            0            0            0            0 
10118000     442.6978    68771.388    367.64478   -346.79588    559.99429    213.19841    657.20666   -346.79588            0   -7.6149335            0            0            0            0            0            0 
10119000    462.84022    67509.763    394.57818   -350.52206     601.0191    250.49703     706.1913   -350.52206            0   -7.7572417            0            0            0            0            0            0 
10120000    498.50225    70244.369    363.05739   -327.48667    553.00682    225.52015    736.20683   -327.48667            0   -7.4552531            0            0            0            0            0            0 
10121000    541.89689     65023.33    409.95746   -367.26141    624.44472    257.18331    771.06336   -367.26141            0   -8.0538715            0            0            0            0            0            0 
10122000    478.70594    68202.718    417.47365     -349.409    635.89333    286.48433    762.63719     -349.409            0   -7.6784263            0            0            0            0            0            0 
10123000       422.78     67969.73    407.25382    -360.8031    620.32655    259.52346    678.61208    -360.8031            0   -7.7047466            0            0            0            0            0            0 
10124000    547.36762    64255.183    413.76171   -371.83392    630.23933    258.40541    771.34138   -371.83392            0   -8.1501526            0            0            0            0            0            0 
10125000    522.49726    64432.963    417.11234    -378.2674    635.34299     257.0756    748.06035    -378.2674            0   -8.1276651            0            0            0            0            0            0 
10126000    433.21121    68117.227    405.13492    -354.8934    617.09906    262.20565    692.56628    -354.8934            0   -7.6880632            0            0            0            0            0            0 
10127000    506.54788    66419.392    397.43735   -354.39132    605.37416    250.98285    741.65486   -354.39132            0   -7.8845881            0            0            0            0            0            0 
10128000     486.9895    67309.737    409.08832   -361.44427    623.12085    261.67658    739.72665   -361.44427            0    -7.780294            0            0            0            0            0            0 
10129000    520.26813    65958.447    403.97944   -363.19743    615.33903     252.1416     752.6064   -363.19743            0   -7.9396889            0            0            0            0            0            0 
10130000    440.10917     70781.64    402.54513   -334.40576     613.1543    278.74853    733.06338   -334.40576            0   -7.3986636            0            0            0            0            0            0 
10131000    447.97028    65622.927    402.54594   -372.49532    613.15554    240.66022    669.38707   -372.49532            0   -7.9802833            0            0            0            0            0            0 
10132000    480.81455     67446.75    419.73468   -360.87351    639.33733    278.46382    751.41305   -360.87351            0    -7.764489            0            0            0            0            0            0 
10133000    514.53527     67793.66    424.53601   -350.52773    646.65068    296.12295    804.84449   -350.52773            0   -7.7247569            0            0            0            0            0            0 
10134000    574.78469    62999.545    392.55966   -366.00674     597.9445    231.93776    760.04059   -366.00674            0   -8.3125925            0            0            0            0            0            0 
10135000    498.72609    69186.396    390.85595   -337.04101    595.34941     258.3084    761.52932   -337.04101            0   -7.5692561            0            0            0            0            0            0 
10136000     417.4489    67273.673    394.47597   -360.47341     600.8634    240.38999    649.95641   -360.47341            0   -7.7844648            0            0            0            0            0            0 
10137000    483.61646     65917.58    382.11197    -354.6937    582.03064    227.33694    692.25693    -354.6937            0   -7.9446112            0            0            0            0            0            0 
10138000    483.88725    70516.657    409.49422   -330.80235    623.73911    292.93676    790.57275   -330.80235            0   -7.4264659            0            0            0            0            0            0 
10139000     433.3117    65566.365    383.84604    -376.4768    584.67196    208.19517    622.53569    -376.4768            0   -7.9871676            0            0            0            0            0            0 
10140000    458.55644    69676.333    382.08497   -334.66142    581.98952    247.32809    713.29382   -334.66142            0    -7.516032            0            0            0            0            0            0 
10141000    474.17998    67048.873     418.9826   -356.57982    638.19176    281.61194    745.28364   -356.57982            0   -7.8105644            0            0            0            0            0            0 
10142000    448.02947    65638.672    381.49772   -359.83167    581.09501    221.26334    650.14972   -359.83167            0    -7.978369            0            0            0            0            0            0 
10143000    490.39277    66763.982    395.77964   -353.04636    602.84914    249.80278    727.29047   -353.04636            0   -7.8438932            0            0            0            0            0            0 
10144000     482.5949     68684.92     389.1944   -339.97477    592.81855    252.84377    736.25865   -339.97477            0     -7.62452            0            0            0            0            0            0 
10145000    454.88465    70772.825    413.16574   -338.07703    629.33156    291.25452    760.76329   -338.07703            0   -7.3995851            0            0            0            0            0            0 
10146000    569.39749    64006.976    418.17311   -368.51124    636.95874     268.4475    799.96644   -368.51124            0   -8.1817574            0            0            0            0            0            0 
10147000    491.20066        66373     392.2814   -355.91635    597.52066    241.60431    717.07776   -355.91635            0   -7.8900991            0            0            0            0            0            0 
10148000    439.22887    70325.099    374.49297   -344.05783    570.42541    226.36758    676.84925   -344.05783            0   -7.4466947            0            0            0            0            0            0 
10149000     561.2923    63905.555    389.82349   -371.95109    593.77677    221.82569     744.9484   -371.95109            0   -8.1947422            0            0            0            0            0            0 
10150000     452.7155    68802.616    400.52055   -353.78845    610.07047    256.28202    710.54381   -353.78845            0   -7.6114772            0            0            0            0            0            0 
10151000    489.67434    67317.846    388.15726    -347.1163    591.23879    244.12249    724.86601    -347.1163            0   -7.7793568            0            0            0            0            0            0 
10152000    439.94474    65881.957    387.30724   -359.84235    589.94404     230.1017    652.80974   -359.84235            0   -7.9489069            0            0            0            0            0            0 
10153000    547.89392    67471.916    426.64929   -345.34303    649.86961    304.52658    843.65895   -345.34303            0    -7.761593            0            0            0            0            0            0 
10154000    571.52528    65984.922    417.66863   -361.09389    636.19032    275.09643    825.08802   -361.09389            0   -7.9365032            0            0            0            0            0            0 
10155000    529.94667    66611.541    383.62868   -356.51799    584.34088    227.82289    742.64541   -356.51799            0    -7.861844            0            0            0            0            0            0 
10156000    460.60877    71962.028    393.97771   -329.89648    600.10446    270.20798    753.61337   -329.89648            0   -7.2773038            0            0            0            0            0            0 
10157000    530.85483    65535.825    397.02701   -356.97079    604.74914    247.77835    755.15495   -356.97079            0   -7.9908896            0            0            0            0            0            0 
10158000    507.45075     66612.61    409.82166   -355.37627    624.23787    268.86161    761.83813   -355.37627            0   -7.8617178            0            0            0            0            0            0 
10159000    529.01098    68060.851    398.76638   -336.64299    607.39853    270.75553    795.85061   -336.64299            0   -7.6944314            0            0            0            0            0            0 
10160000    480.30951      65949.8    420.71187   -364.37694    640.82578    276.44884    738.41542   -364.37694            0   -7.9407298            0            0            0            0            0            0 
10161000    443.16575    66223.121    386.87479   -359.89761    589.28533    229.38772    657.39556   -359.89761            0   -7.9079563            0            0            0            0            0            0 
10162000    511.38124    66951.253    390.30895   -353.07097    594.51623    241.44526    740.76575   -353.07097            0   -7.8219528            0            0            0            0            0            0 
10163000    454.84639     67255.06     415.8151    -358.8474    633.36704    274.51964    720.65393    -358.8474            0   -7.7866193            0            0            0            0            0            0 
10164000    520.76303    63517.303    415.87052   -384.56066    633.45146     248.8908    731.29167   -384.56066            0   -8.2448329            0            0            0            0            0            0 
10165000    529.65414     69739.66    403.52904    -337.5053    614.65299     277.1477    815.84908    -337.5053            0    -7.509207            0            0            0            0            0            0 
10166000    458.61458    66967.814    372.40639   -360.37334    567.24715    206.87381    654.78289   -360.37334            0   -7.8200185            0            0            0            0            0            0 
10167000    633.98507    63454.853    379.54059   -355.90664    578.11392    222.20728    808.91225   -355.90664            0    -8.252947            0            0            0            0            0            0 
10168000    563.50992    68373.252    416.19297   -342.16394    633.94262    291.77868    853.68471   -342.16394            0   -7.6592751            0            0            0            0            0            0 
10169000    490.53676        68189    399.49274   -352.78905    608.50491    255.71587    743.53829   -352.78905            0   -7.6799711            0            0            0            0            0            0 
10170000    522.29524    66658.478      391.697   -345.22644     596.6305    251.40406    759.15104   -345.22644            0   -7.8563082            0            0            0            0            0            0 
10171000    518.02176    66764.886    393.45286   -357.92779      599.305    241.37721    745.77364   -357.92779            0   -7.8437871            0            0            0            0            0            0 
10172000     466.9789     69217.74    406.64745   -341.62499    619.40293    277.77795    749.17902   -341.62499            0   -7.5658284            0            0            0            0            0            0 
10173000    501.42377    66290.504    420.87765   -364.80932    641.07828    276.26897    761.03494   -364.80932            0    -7.899918            0            0            0            0            0            0 
10174000    506.35984    68561.337    398.83209   -336.26168    607.49862    271.23693     777.5445   -336.26168            0   -7.6382633            0            0            0            0            0            0 
10175000    522.52059    69499.537    374.02921   -331.70098    569.71903    238.01805    767.63419   -331.70098            0   -7.5351515            0            0            0            0            0            0 
10176000    522.13268    68491.525    381.74564   -339.98789    581.47264    241.48474    763.03193   -339.98789            0   -7.6460488            0            0            0            0            0            0 
10177000    423.21831    66426.554    414.06687   -370.78077    630.70414    259.92336    669.92166   -370.78077            0    -7.883738            0            0            0            0            0            0 
10178000    500.62815    63975.331    403.97684   -377.75233    615.33508    237.58275    704.67612   -377.75233            0   -8.1858044            0            0            0            0            0            0 
10179000     431.6729    68258.724    375.36379   -349.41648    571.75185    222.33537    652.05861   -349.41648            0   -7.6721262            0            0            0            0            0            0 
10180000    494.07826    64086.635    389.75811   -386.70041    593.67719    206.97678    668.76102   -386.70041            0   -8.1715875            0            0            0            0            0            0 
10181000    528.97197    68585.566    416.84563   -337.13355    634.93673    297.80319    826.90747   -337.13355            0   -7.6355649            0            0            0            0            0            0 
10182000    578.99123     68181.83    414.50658   -334.90173    631.37392    296.47218    872.19909   -334.90173            0   -7.6807787            0            0            0            0            0            0 
10183000    556.25212    65650.799    395.50167   -353.69496    602.42574    248.73078    781.31412   -353.69496            0   -7.9768953            0            0            0            0            0            0 
10184000     429.6179    63254.459       384.91   -394.84775    586.29258    191.44483    587.76795   -394.84775            0   -8.2790929            0            0            0            0            0            0 
10185000    496.77964    71505.264    419.80819   -329.29176    639.44929    310.15754    828.21471   -329.29176            0   -7.3237901            0            0            0            0            0            0 
10186000    457.00546    66764.363    388.87269   -358.34226    592.32852    233.98626     678.9678   -358.34226            0   -7.8438484            0            0            0            0            0            0 
10187000    493.46728    65338.783    385.48829   -363.01154    587.17343    224.16189    694.38643   -363.01154            0   -8.0149877            0            0            0            0            0            0 
10188000    476.75999    66715.613    371.27767   -355.95423     565.5279    209.57367    673.45102   -355.95423            0   -7.8495801            0            0            0            0            0            0 
10189000    462.37368    67575.197    374.42773   -353.56014    570.32605     216.7659    672.44207   -353.56014            0   -7.7497302            0            0            0            0            0            0 
10190000    566.12916    68888.847    407.57134   -333.45427    620.81019    287.35592     856.1307   -333.45427            0   -7.6019496            0            0            0            0            0            0 
10191000    419.55041    64140.892    375.60954   -377.54376    572.12617    194.58241    587.04208   -377.54376            0   -8.1646751            0            0            0            0            0            0 
10192000    510.13667    63131.584    385.31543   -379.90766    586.91013    207.00247     676.6901   -379.90766            0   -8.2952068            0            0            0            0            0            0 
10193000    506.10475    72011.966    394.13853   -317.43721    600.34942    282.91221    814.43387   -317.43721            0   -7.2722573            0            0            0            0            0            0 
10194000     558.7358    64986.637    386.84514   -360.85287    589.24017     228.3873    757.93666   -360.85287            0   -8.0584189            0            0            0            0            0            0 
10195000    537.61633     65373.43    407.24013   -355.73789     620.3057    264.56781     777.1336   -355.73789            0   -8.0107399            0            0            0            0            0            0 
10196000      536.422    67753.746    408.42349   -340.71267    622.10819    281.39552    811.44423   -340.71267            0   -7.7293076            0            0            0            0            0            0 
10197000    538.93994    67983.115        393.4   -344.17578    599.22449    255.04871    789.38826   -344.17578            0   -7.7032296            0            0            0            0            0            0 
10198000    550.08062    63433.567    398.18224   -374.29575    606.50878    232.21303    741.10004   -374.29575            0   -8.2557165            0            0            0            0            0            0 
10199000    520.55184    65448.392    387.94583   -354.42563    590.91674    236.49111    733.35662   -354.42563            0   -8.0015648            0            0            0            0            0            0 
10200000    489.13904    67075.646    379.66337   -355.22967    578.30095    223.07128    701.56152   -355.22967            0   -7.8074469            0            0            0            0            0            0 
10201000    452.55294    68030.719     408.9248   -351.59991    622.87177    271.27187    720.27601   -351.59991            0   -7.6978393            0            0            0            0            0            0 
10202000    401.74406    67748.475    399.18846   -359.82222    608.04144    248.21922    645.15922   -359.82222            0    -7.729909            0            0            0            0            0            0 
10203000    534.57418    63719.578    421.20614   -373.74993    641.57865    267.82872    764.60031   -373.74993            0     -8.21866            0            0            0            0            0            0 
10204000    478.19761    64160.122    380.91785   -372.33308    580.21176    207.87868    655.33276   -372.33308            0   -8.1622281            0            0            0            0            0            0 
10205000    482.22949    69528.343    424.10381   -343.15157    645.99236    302.84079    791.82128   -343.15157            0   -7.5320297            0            0            0            0            0            0 
10206000    519.13357    67463.331    411.86693   -346.71299    627.35321    280.64023    791.40718   -346.71299            0   -7.7625806            0            0            0            0            0            0 
10207000    511.35625    70538.543    421.50712   -337.27745    642.03709    304.75965    830.80833   -337.27745            0   -7.4241617            0            0            0            0            0            0 
10208000    460.52768    68127.101    389.95054   -352.19674    593.97029    241.77355    699.33721   -352.19674            0    -7.686949            0            0            0            0            0            0 
10209000    558.80439    63471.404    391.09384   -374.30959    595.71176    221.40217    738.66802   -374.30959            0   -8.2507951            0            0            0            0            0            0 
10210000    343.39069    70329.067     379.9773   -346.97461    578.77912    231.80451    584.01255   -346.97461            0   -7.4462746            0            0            0            0            0            0 
10211000    449.03706    69102.806    383.72288    -349.1423    584.48437    235.34207    687.87872    -349.1423            0   -7.5784122            0            0            0            0            0            0 
10212000    435.05944    68845.042    397.79668   -344.63038    605.92149    261.29111    698.10571   -344.63038            0   -7.6067867            0            0            0            0            0            0 
10213000    546.40043    64514.088    400.64401   -369.33179    610.25852    240.92673    755.01949   -369.33179            0   -8.1174448            0            0            0            0            0            0 
10214000    478.11026    67433.293    392.58414   -357.51941    597.98177    240.46237     710.6577   -357.51941            0   -7.7660385            0            0            0            0            0            0 
10215000    482.20434    67618.956    414.39631   -342.55529    631.20595    288.65066    764.17798   -342.55529            0   -7.7447151            0            0            0            0            0            0 
10216000    532.69713    65779.373    389.10549   -355.09695    592.68312    237.58617    748.61568   -355.09695            0   -7.9613034            0            0            0            0            0            0 
10217000    411.64487    69544.321    403.46489   -355.20072    614.55528    259.35455    676.85819   -355.20072            0   -7.5302993            0            0            0            0            0            0 
10218000    498.00385    66417.997    397.37834   -362.25135    605.28428    243.03293    725.41856   -362.25135            0   -7.8847537            0            0            0            0            0            0 
10219000    426.35224    68510.859    412.24047   -354.13886    627.92219    273.78333    699.77769   -354.13886            0   -7.6438911            0            0            0            0            0            0 
10220000    403.93013    64393.711    417.83804   -382.64413    636.44837    253.80424    633.14158   -382.64413            0   -8.1326194            0            0            0            0            0            0 
10221000     472.0849    66029.601    381.26787   -356.67458     580.7449    224.07032     678.6758   -356.67458            0   -7.9311329            0            0            0            0            0            0 
10222000    460.27733    66806.566    398.60032   -361.44971    607.14559    245.69587    694.14649   -361.44971            0   -7.8388933            0            0            0            0            0            0 
10223000    431.45531    67507.957    392.84333   -365.64092    598.37658    232.73566    657.51821   -365.64092            0   -7.7574492            0            0            0            0            0            0 
10224000     451.0232    67484.511    398.57562   -361.69022    607.10797    245.41775    689.31135   -361.69022            0   -7.7601443            0            0            0            0            0            0 
10225000    476.31781    66742.635    400.31183   -357.26193    609.75256    252.49062    716.12545   -357.26193            0    -7.846402            0            0            0            0            0            0 
10226000    440.03754    69022.547     400.2906   -343.32181    609.72022    266.39841    709.35033   -343.32181            0   -7.5872243            0            0            0            0            0            0 
10227000    389.94029     64762.26    385.42174   -380.74225    587.07206    206.32981    574.62496   -380.74225            0   -8.0863383            0            0            0            0            0            0 
10228000    481.37839    69167.735     408.0053   -347.88496     621.4712    273.58624     759.1721   -347.88496            0   -7.5712981            0            0            0            0            0            0 
10229000    494.25479     68996.44    406.37669   -344.51413    618.99051    274.47639    771.81647   -344.51413            0   -7.5900951            0            0            0            0            0            0 
10230000    497.09485    64934.543    406.77719   -367.56947    619.60055    252.03108    722.78174   -367.56947            0   -8.0648838            0            0            0            0            0            0 
10231000    452.94076    66408.631    404.34433    -363.6173    615.89484    252.27754    690.95147    -363.6173            0   -7.8858657            0            0            0            0            0            0 
10232000    413.71605    66738.342    400.34456    -371.6302    609.80241    238.17221    640.84629    -371.6302            0   -7.8469067            0            0            0            0            0            0 
10233000    446.43482    69079.454     397.9289   -347.73087    606.12289    258.39202    708.15411   -347.73087            0    -7.580974            0            0            0            0            0            0 
10234000    640.81435    62954.178    403.10914   -363.47969    614.01339    250.53371    838.87953   -363.47969            0   -8.3185828            0            0            0            0            0            0 
10235000    483.25061    68734.642    408.08536   -346.22353    621.59315    275.36962    759.79176   -346.22353            0   -7.6190044            0            0            0            0            0            0 
10236000    430.53829    68066.746    400.98109   -359.40346    610.77196     251.3685    678.75683   -359.40346            0    -7.693765            0            0            0            0            0            0 
10237000    409.66204     66756.06    372.46829   -366.71364    567.34145     200.6278    599.46193   -366.71364            0    -7.844824            0            0            0            0            0            0 
10238000    467.39867    66171.482    396.60613   -358.75205    604.10806      245.356    696.41591   -358.75205            0   -7.9141276            0            0            0            0            0            0 
10239000    444.46473    68944.911    407.19272   -352.37688    620.23348    267.85659    714.76179   -352.37688            0    -7.595768            0            0            0            0            0            0 
10240000    504.41162     64470.34    400.15875   -372.82717    609.51939    236.69222    710.95707   -372.82717            0    -8.122953            0            0            0            0            0            0 
10241000     454.3249    67296.669    388.28243    -344.5707    591.42944    246.85874    692.75723    -344.5707            0   -7.7818048            0            0            0            0            0            0 
10242000    546.56147    69901.889    415.64249   -337.47664    633.10412    295.62748    852.81813   -337.47664            0   -7.4917795            0            0            0            0            0            0 
10243000    594.90268    64127.856    430.41623   -359.62922    655.60739    295.97817    852.35436   -359.62922            0   -8.1663348            0            0            0            0            0            0 
10244000    438.39547    68389.748    389.66931   -341.56898    593.54192    251.97295     689.2261   -341.56898            0   -7.6574276            0            0            0            0            0            0 
10245000    400.49547     71551.71    420.62074   -345.80702    640.68695    294.87993    712.80027   -345.80702            0   -7.3190361            0            0            0            0            0            0 
10246000      468.621    66210.772    383.62731    -354.6665    584.33879    229.67229    682.18032    -354.6665            0   -7.9094311            0            0            0            0            0            0 
10247000     383.5821    66716.202    389.08048    -373.6966    592.64503    218.94843    592.16897    -373.6966            0   -7.8495107            0            0            0            0            0            0 
10248000    425.02486    70814.203    413.16633   -347.88591    629.33245    281.44653    720.39202   -347.88591            0   -7.3952615            0            0            0            0            0            0 
10249000     419.1536    64766.257    390.44648   -378.46616    594.72571    216.25955    612.17084   -378.46616            0   -8.0858393            0            0            0            0            0            0 
10250000     428.5242    67575.184    370.40311   -349.49036    564.19578    214.70542    637.02233   -349.49036            0   -7.7497317            0            0            0            0            0            0 
10251000    533.44718    64016.209    400.31584   -373.16722    609.75867    236.59145    734.62347   -373.16722            0   -8.1805773            0            0            0            0            0            0 
10252000    461.72576    70033.274    402.33903   -345.37442    612.84037    267.46595    739.05578   -345.37442            0   -7.4777247            0            0            0            0            0            0 
10253000    555.61306    67325.233    403.49582    -346.0761    614.60238    268.52629    814.06579    -346.0761            0   -7.7785032            0            0            0            0            0            0 
10254000    496.33374     67654.99    390.42364   -347.06107    594.69092    247.62985    737.35174   -347.06107            0   -7.7405901            0            0            0            0            0            0 
10255000    495.95071     67736.03    394.05601    -340.8236    600.22372    259.40012    749.33025    -340.8236            0   -7.7313292            0            0            0            0            0            0 
10256000    516.17191    67160.511    392.68807   -339.62756    598.14009    258.51253    764.08597   -339.62756            0   -7.7975813            0            0            0            0            0            0 
10257000    478.33281    68613.544     407.7721   -343.44555    621.11599    277.67044    756.31807   -343.44555            0   -7.6324514            0            0            0            0            0            0 
10258000    441.01221    68637.221    397.06389   -348.89859    604.80531    255.90671    697.36146   -348.89859            0   -7.6298186            0            0            0            0            0            0 
10259000    360.89146    70091.925    407.97216    -351.0403    621.42071    270.38041    639.29045    -351.0403            0   -7.4714676            0            0            0            0            0            0 
10260000    453.35301    64667.981    393.69433   -377.73807    599.67281    221.93474     649.4993   -377.73807            0   -8.0981273            0            0            0            0            0            0 
10261000    502.17654    69325.123    402.56463   -340.44642      613.184    272.73759    780.45605   -340.44642            0   -7.5541091            0            0            0            0            0            0 
10262000    597.07114     65131.16    426.16267   -362.70883    649.12839    286.41956    853.56021   -362.70883            0   -8.0405377            0            0            0            0            0            0 
10263000    487.49271    68538.142    415.07408   -347.68199    632.23832    284.55633    771.83381   -347.68199            0   -7.6408483            0            0            0            0            0            0 
10264000     584.3829    64236.578    396.33272   -359.12431     603.6916    244.56729    792.03157   -359.12431            0   -8.1525131            0            0            0            0            0            0 
10265000    523.65294    68889.621    418.19436   -346.40924    636.99111    290.58188    816.68784   -346.40924            0   -7.6018643            0            0            0            0            0            0 
10266000    495.77399    67570.157    379.38895   -350.43711    577.88295    227.44583    716.00207   -350.43711            0   -7.7503082            0            0            0            0            0            0 
10267000    451.10008    69205.545    406.80986   -356.32773     619.6503    263.32258    718.61422   -356.32773            0   -7.5671617            0            0            0            0            0            0 
10268000    502.63046    66126.711    394.59476   -357.03116    601.04435    244.01319    728.74511   -357.03116            0   -7.9194858            0            0            0            0            0            0 
10269000    495.32544    65587.391    371.91717   -355.27967    566.50198    211.22231    685.01339   -355.27967            0   -7.9846071            0            0            0            0            0            0 
10270000    417.08092    69133.391    408.08789   -351.62844    621.59701    269.96856    690.48606   -351.62844            0   -7.5750594            0            0            0            0            0            0 
10271000    512.74889    65398.862    404.21016    -356.0951    615.69047    259.59537    748.64261    -356.0951            0   -8.0076247            0            0            0            0            0            0 
10272000    460.40375    66699.021    409.77386   -365.10241    624.16506    259.06264    706.91431   -365.10241            0   -7.8515328            0            0            0            0            0            0 
10273000    471.11945    70121.004    394.02714   -332.47961    600.17975    267.70014    749.48712   -332.47961            0   -7.4683691            0            0            0            0            0            0 
10274000    573.63361    65733.795    405.56754   -355.48324    617.75802    262.27479    812.19437   -355.48324            0   -7.9668236            0            0            0            0            0            0 
10275000    458.08503    65185.845    406.88575   -375.01726    619.76591    244.74865    680.23574   -375.01726            0   -8.0337924            0            0            0            0            0            0 
10276000    512.77468    66844.626    377.92412   -351.82915    575.65172    223.82257    723.70625   -351.82915            0   -7.8344301            0            0            0            0            0            0 
10277000    602.81465    61748.103    441.57138   -391.64114    672.59885    280.95771    823.81204   -391.64114            0   -8.4810629            0            0            0            0            0            0 
10278000    518.64172    68113.358    397.85111   -339.21753    606.00439    266.78686     781.9866   -339.21753            0   -7.6884998            0            0            0            0            0            0 
10279000    500.05336    66947.036    398.34197   -352.67054    606.75208    254.08154    742.31056   -352.67054            0   -7.8224456            0            0            0            0            0            0 
10280000    554.65654    65671.157    404.57397   -355.50287    616.24462    260.74175    791.96208   -355.50287            0   -7.9744225            0            0            0            0            0            0 
10281000    459.29976    72007.923    407.17366   -329.63321    620.20444    290.57123    772.91025   -329.63321            0   -7.2726656            0            0            0            0            0            0 
10282000    630.65157    66392.668    432.69814   -349.56479    659.08318    309.51839    920.15874   -349.56479            0   -7.8877617            0            0            0            0            0            0 
10283000    545.74588     65359.89    408.57153   -357.06065    622.33368    265.27303     785.4818   -357.06065            0   -8.0123994            0            0            0            0            0            0 
10284000    475.50649    66377.237    403.62685   -357.44689    614.80196    257.35507    717.66623   -357.44689            0   -7.8895954            0            0            0            0            0            0 
10285000    425.97982    68310.904    378.76402   -350.16008    576.93105    226.77097    651.15102   -350.16008            0   -7.6662657            0            0            0            0            0            0 
10286000     450.6806    70640.684    404.70444   -342.20056    616.44335    274.24279    738.54382   -342.20056            0   -7.4134269            0            0            0            0            0            0 
10287000    503.34559    70294.679    420.71552   -333.20468    640.83132    307.62664    823.64436   -333.20468            0   -7.4499173            0            0            0            0            0            0 
10288000    477.27066    70899.128    367.32231    -328.5914    559.50312    230.91172    724.40532    -328.5914            0   -7.3864032            0            0            0            0            0            0 
10289000    547.70588    62542.591    405.84496   -387.87664    618.18058    230.30394    729.87718   -387.87664            0   -8.3733267            0            0            0            0            0            0 
10290000    542.73964    63218.415    402.01485   -375.69647    612.34659    236.65012     737.0429   -375.69647            0   -8.2838132            0            0            0            0            0            0 
10291000    471.40852    65512.692    421.63315   -368.03105    642.22905      274.198     724.5984   -368.03105            0   -7.9937113            0            0            0            0            0            0 
10292000    406.95871    72866.567    413.11295   -335.38076    629.25114    293.87038    726.33895   -335.38076            0   -7.1869661            0            0            0            0            0            0 
10293000    405.38908     68651.85     405.4211   -350.97182    617.53495    266.56313    672.44549   -350.97182            0   -7.6281928            0            0            0            0            0            0 
10294000    492.94156    66693.879    396.36847     -348.981    603.74605    254.76505    734.23048     -348.981            0   -7.8521381            0            0            0            0            0            0 
10295000    543.97019    66438.451    421.95207   -354.81207    642.71483    287.90277    814.97542   -354.81207            0   -7.8823263            0            0            0            0            0            0 
10296000    478.07539    71577.769    407.54793   -326.91848    620.77454    293.85606    792.91338   -326.91848            0   -7.3163715            0            0            0            0            0            0 
10297000    511.91247    70409.306    400.77083   -334.05728     610.4517    276.39441    802.05046   -334.05728            0   -7.4377887            0            0            0            0            0            0 
10298000    482.98399    69102.835    400.20122   -340.29633    609.58407    269.28774    756.03609   -340.29633            0    -7.578409            0            0            0            0            0            0 
10299000    521.38998    64828.405    407.60824   -371.37768     620.8664    249.48872    742.43989   -371.37768            0   -8.0780878            0            0            0            0            0            0 
10300000    543.04581    67292.502    404.25024   -345.43473    615.75152    270.31679    803.25767   -345.43473            0   -7.7822868            0            0            0            0            0            0 
10301000     438.0924    68616.989    408.44438   -354.76186       622.14    267.37815     705.7809   -354.76186            0   -7.6320682            0            0            0            0            0            0 
10302000    428.16876    66385.515    405.65836   -366.60036    617.89635    251.29599    665.83385   -366.60036            0   -7.8886116            0            0            0            0            0            0 
10303000    573.02101    64319.971    390.30009   -351.16373    594.50273      243.339    780.85608   -351.16373            0   -8.1419432            0            0            0            0            0            0 
10304000    441.86494    70653.907    399.35287   -332.20889    608.29187    276.08298    731.38714   -332.20889            0   -7.4120395            0            0            0            0            0            0 
10305000    453.95587    66401.119    395.24243   -366.49934    602.03087    235.53153    675.13887   -366.49934            0   -7.8867578            0            0            0            0            0            0 
10306000    451.18277    66271.787    393.70874   -359.44491    599.69476    240.24985    676.32072   -359.44491            0   -7.9021491            0            0            0            0            0            0 
10307000     572.1771    65699.518    433.84615   -357.40289    660.83183    303.42893    851.66619   -357.40289            0     -7.97098            0            0            0            0            0            0 
10308000    505.65172        70303    394.71618   -333.86355     601.2293    267.36574    785.80901   -333.86355            0   -7.4490355            0            0            0            0            0            0 
10309000     536.7044    64633.168    403.98373   -366.14807    615.34557     249.1975    755.09961   -366.14807            0   -8.1024892            0            0            0            0            0            0 
10310000    369.41802    70701.036    399.16044   -340.84385    607.99877    267.15492    648.06261   -340.84385            0   -7.4070987            0            0            0            0            0            0 
10311000    495.78662    66299.575    375.62784   -359.49021    572.15405    212.66383    692.04552   -359.49021            0   -7.8988372            0            0            0            0            0            0 
10312000    537.44376    65634.861    430.98268    -369.3917    656.47021     287.0785    801.52887    -369.3917            0   -7.9788323            0            0            0            0            0            0 
10313000    484.73441    69027.525    408.13668   -345.69412    621.67131     275.9772    763.95722   -345.69412            0   -7.5866772            0            0            0            0            0            0 
10314000    577.78634    62997.651    401.83716   -368.60351    612.07593    243.47242    774.31716   -368.60351            0   -8.3128425            0            0            0            0            0            0 
10315000    457.10688    66790.602    398.11317   -359.04156    606.40357    247.36201    692.61721   -359.04156            0    -7.840767            0            0            0            0            0            0 
10316000    464.08281    66676.301    431.10353   -367.72395    656.65428    288.93033    740.20699   -367.72395            0   -7.8542081            0            0            0            0            0            0 
10317000    524.38081    68019.826    407.06582   -339.07752    620.04019    280.96267    801.14811   -339.07752            0   -7.6990722            0            0            0            0            0            0 
10318000    493.94582    70085.116    407.78108   -339.96892    621.12967    281.16075    786.03242   -339.96892            0   -7.4721934            0            0            0            0            0            0 
10319000    475.05858    66937.374    393.19371   -356.70666    598.91028    242.20362    705.96195   -356.70666            0   -7.8235747            0            0            0            0            0            0 
10320000    570.66139    65759.566    389.42218   -353.01841     593.1655     240.1471    787.43181   -353.01841            0   -7.9637014            0            0            0            0            0            0 
10321000    454.56955    66662.061    389.08319   -362.48614    592.64915    230.16301    672.09453   -362.48614            0   -7.8558858            0            0            0            0            0            0 
10322000    587.04728    62294.502    383.46316   -373.38229    584.08876    210.70648    744.03976   -373.38229            0   -8.4066736            0            0            0            0            0            0 
10323000    583.66641    68347.685    420.93258   -335.25779    641.16196    305.90417    887.69169   -335.25779            0   -7.6621402            0            0            0            0            0            0 
10324000     556.0213    65138.502    408.15099   -362.51401    621.69311     259.1791    787.38723   -362.51401            0   -8.0396314            0            0            0            0            0            0 
10325000    480.08458    65926.019    412.42585   -366.36298    628.20456    261.84157    723.42531   -366.36298            0   -7.9435942            0            0            0            0            0            0 
10326000    565.47749    64741.964    389.74494   -355.90588    593.65713    237.75125    771.67235   -355.90588            0   -8.0888733            0            0            0            0            0            0 
10327000    439.00453    68168.376    369.68781   -349.23192    563.10623    213.87431    650.31761   -349.23192            0   -7.6822946            0            0            0            0            0            0 
10328000    577.19871    66059.459    408.78841   -357.68362    622.66403    264.98041     821.0591   -357.68362            0   -7.9275482            0            0            0            0            0            0 
10329000    594.27814    66221.517     415.3208   -349.25436    632.61413    283.35977    857.29749   -349.25436            0   -7.9081478            0            0            0            0            0            0 
10330000    470.34506    64417.588    397.08855   -382.50882    604.84288    222.33406    664.20652   -382.50882            0    -8.129605            0            0            0            0            0            0 
10331000    392.72987    69308.239    378.86755   -347.02594    577.08876    230.06281    627.03008   -347.02594            0   -7.5559494            0            0            0            0            0            0 
10332000    504.85811    65500.911    409.99971   -368.00764    624.50907    256.50143      738.774   -368.00764            0   -7.9951491            0            0            0            0            0            0 
10333000    548.36071    66823.629    443.83613   -357.76824    676.04851    318.28027    852.68743   -357.76824            0   -7.8368918            0            0            0            0            0            0 
10334000    441.04011    69550.392    405.41518   -351.41623    617.52595    266.10972    713.46601   -351.41623            0   -7.5296419            0            0            0            0            0            0 
10335000      561.438    62368.353     390.2404   -373.70071    594.41181     220.7111    731.38301   -373.70071            0   -8.3967192            0            0            0            0            0            0 
10336000    604.34891    64667.663     396.8436   -356.92431    604.46977    247.54546    817.51389   -356.92431            0   -8.0981672            0            0            0            0            0            0 
10337000    477.60583    67716.971    438.80389    -359.2066    668.38342    309.17682    780.85201    -359.2066            0   -7.7335052            0            0            0            0            0            0 
10338000    509.15628    67870.068    395.70703   -345.99181    602.73854    256.74673    760.71743   -345.99181            0   -7.7160604            0            0            0            0            0            0 
10339000    446.51065    65988.645    404.55524   -366.18965    616.21608    250.02643    679.73788   -366.18965            0   -7.9360554            0            0            0            0            0            0 
10340000    463.05699    67899.685    410.85588   -347.52739    625.81318    278.28578    736.82671   -347.52739            0   -7.7126947            0            0            0            0            0            0 
10341000    521.86953    69963.493    370.97807   -331.79555    565.07155      233.276    765.76338   -331.79555            0    -7.485183            0            0            0            0            0            0 
10342000    530.33277    63555.948    380.98368   -368.99503    580.31203      211.317    702.88155   -368.99503            0   -8.2398195            0            0            0            0            0            0 
10343000    384.13435    67363.749     383.8731   -361.41827    584.71317    223.29491    600.68047   -361.41827            0   -7.7740559            0            0            0            0            0            0 
10344000    427.08599    67284.301    397.42984   -372.72731    605.36272    232.63541    651.72315   -372.72731            0   -7.7832352            0            0            0            0            0            0 
10345000    418.65263     68273.51    414.12591   -359.29141    630.79408    271.50267    688.35473   -359.29141            0   -7.6704646            0            0            0            0            0            0 
10346000    528.16883    65606.794    418.08886   -357.51511    636.83042    279.31531    784.67137   -357.51511            0   -7.9822456            0            0            0            0            0            0 
10347000    462.26468    69108.334    394.45021    -342.0314    600.82417    258.79278    724.69741    -342.0314            0    -7.577806            0            0            0            0            0            0 
10348000    531.64371    67578.197     401.1928    -352.1275    611.09444    258.96694    782.93301    -352.1275            0   -7.7493862            0            0            0            0            0            0 
10349000     534.0265    69930.995    432.18852   -335.96082    658.30693    322.34611    866.98468   -335.96082            0   -7.4886615            0            0            0            0            0            0 
10350000    532.10967    64555.735    428.40302   -367.15937    652.54088     285.3815    786.35168   -367.15937            0   -8.1122079            0            0            0            0            0            0 
10351000    492.93825    68958.412    401.82956   -343.81244    612.06435    268.25191    763.99385   -343.81244            0   -7.5942808            0            0            0            0            0            0 
10352000    519.98638    64212.832    402.10908   -370.60376    612.49012    241.88636    728.84231   -370.60376            0    -8.155528            0            0            0            0            0            0 
10353000    479.99333    65589.959    398.91557   -361.54503    607.62578    246.08075    705.22427   -361.54503            0   -7.9842944            0            0            0            0            0            0 
[...]
14939000    583.52201    66152.669    390.15107   -335.03481    594.27575    259.24094    822.20478   -335.03481            0   -7.9163782            0            0            0            0            0            0 
14940000    529.34385    68620.954    404.65781   -336.53843    616.37232    279.83389    809.58333   -336.53843            0   -7.6316273            0            0            0            0            0            0 
14941000    559.56773    66765.901    406.63668   -349.94408    619.38653    269.44245    814.30036   -349.94408            0   -7.8436678            0            0            0            0            0            0 
14942000    525.07568    67107.982    418.37982   -351.90623    637.27361    285.36738    799.25951   -351.90623            0   -7.8036849            0            0            0            0            0            0 
14943000    531.07189    63207.906    416.87152   -372.91601    634.97617    262.06016    751.61416   -372.91601            0   -8.2851905            0            0            0            0            0            0 
14944000    463.43061    67307.224    397.10898   -352.22013    604.87398    252.65385     707.5605   -352.22013            0   -7.7805845            0            0            0            0            0            0 
14945000    537.59776    66629.915    371.14227   -345.52931    565.32165    219.79234    742.19166   -345.52931            0    -7.859676            0            0            0            0            0            0 
14946000    453.00835    67332.236    387.63144   -365.31086    590.43786    225.12699    669.96833   -365.31086            0   -7.7776943            0            0            0            0            0            0 
14947000    419.88783    72936.157    400.42184   -324.26632    609.92011    285.65379    732.28807   -324.26632            0   -7.1801089            0            0            0            0            0            0 
14948000    435.16898    64575.703    381.10552   -377.91117    580.49762    202.58645    612.41571   -377.91117            0   -8.1096995            0            0            0            0            0            0 
14949000    473.88531    67018.321    412.94149   -358.18864    628.98997    270.80133    733.97374   -358.18864            0   -7.8141251            0            0            0            0            0            0 
14950000    476.57648    70264.313    405.00318    -338.5993    616.89839    278.29909     766.6627    -338.5993            0   -7.4531369            0            0            0            0            0            0 
14951000    464.10226    67301.926    397.46896   -352.24612     605.4223    253.17618    708.70626   -352.24612            0    -7.781197            0            0            0            0            0            0 
14952000    522.18871    64725.536    378.46183   -363.42194    576.47077    213.04883    705.97176   -363.42194            0   -8.0909264            0            0            0            0            0            0 
14953000    456.83955    71407.862    405.84279   -330.41428    618.17727    287.76299    763.52047   -330.41428            0   -7.3337799            0            0            0            0            0            0 
14954000    486.12662    67497.415    377.84865   -349.16786    575.53677    226.36891    704.90251   -349.16786            0   -7.7586607            0            0            0            0            0            0 
14955000    570.55743    65250.591    397.56795   -365.43674    605.57309    240.13635    783.08618   -365.43674            0   -8.0258207            0            0            0            0            0            0 
14956000    527.74863     68122.03    430.51168    -347.8623    655.75279    307.89049    832.20344    -347.8623            0   -7.6875211            0            0            0            0            0            0 
14957000      540.574    66943.689    403.44324   -340.62016     614.5223    273.90213    801.66725   -340.62016            0   -7.8228367            0            0            0            0            0            0 
14958000    424.51082    69726.291     405.1712   -347.30752    617.15431    269.84679    701.52609   -347.30752            0   -7.5106468            0            0            0            0            0            0 
14959000     484.5304    69586.095    375.13456   -335.84146    571.40268    235.56122    727.28293   -335.84146            0   -7.5257786            0            0            0            0            0            0 
14960000    524.74594    65669.234    403.02045   -364.03285     613.8783    249.84545    752.40431   -364.03285            0   -7.9746559            0            0            0            0            0            0 
14961000    462.69375    70369.728    398.29132   -330.68267    606.67492    275.99225    750.84111   -330.68267            0    -7.441972            0            0            0            0            0            0 
14962000    488.46268    70216.977    384.96483   -333.07147     586.3761    253.30463    753.51122   -333.07147            0   -7.4581613            0            0            0            0            0            0 
14963000    557.32032    66544.483    414.61986   -353.16764    631.54646    278.37883    819.24874   -353.16764            0   -7.8697665            0            0            0            0            0            0 
14964000    546.05506    66415.186    424.07987   -355.62576    645.95589    290.33013    819.23763   -355.62576            0   -7.8850874            0            0            0            0            0            0 
14965000    554.08644    63830.625    392.11097   -367.47775    597.26105     229.7833    745.58469   -367.47775            0   -8.2043618            0            0            0            0            0            0 
14966000    469.06784      68822.2    378.60182   -340.72944      576.684    235.95456     706.7585   -340.72944            0   -7.6093114            0            0            0            0            0            0 
14967000    566.70237     64040.74     372.7493   -357.95513    567.76947    209.81433     739.0965   -357.95513            0   -8.1774437            0            0            0            0            0            0 
14968000     392.0133      69397.4    394.33603   -352.40474    600.65025     248.2455     644.9982   -352.40474            0   -7.5462416            0            0            0            0            0            0 
14969000    463.08393    67315.952     410.0768    -360.6496    624.62649    263.97689    718.60218    -360.6496            0   -7.7795757            0            0            0            0            0            0 
14970000    491.93796    65145.962    410.64322   -373.42104    625.48926    252.06822    719.45209   -373.42104            0   -8.0387108            0            0            0            0            0            0 
14971000    528.62747    66553.377    410.30054   -356.62788    624.96729    268.33942    781.43198   -356.62788            0   -7.8687148            0            0            0            0            0            0 
14972000    447.17227    69423.335    425.42038   -347.10979    647.99774    300.88796    753.63562   -347.10979            0   -7.5434225            0            0            0            0            0            0 
14973000    544.01296    64803.398    383.77163   -363.19336    584.55861    221.36525    735.50706   -363.19336            0    -8.081205            0            0            0            0            0            0 
14974000    475.60004    69679.133    412.49855   -342.18379    628.31529     286.1315    769.43563   -342.18379            0     -7.51573            0            0            0            0            0            0 
14975000    571.73898    66752.398    427.75371   -353.56653    651.55186    297.98533    854.58195   -353.56653            0   -7.8452545            0            0            0            0            0            0 
14976000    477.02634    70930.605    404.95973    -331.0853     616.8322     285.7469    779.20685    -331.0853            0   -7.3831253            0            0            0            0            0            0 
14977000    583.86989    67330.245    383.10455   -341.47386    583.54252    242.06866    815.39535   -341.47386            0   -7.7779243            0            0            0            0            0            0 
14978000    417.87803    71030.664    389.91789   -342.91092    593.92056    251.00964    683.89341   -342.91092            0   -7.3727249            0            0            0            0            0            0 
14979000    619.20673    65099.641    400.94797   -346.27246    610.72152    264.44906    852.33105   -346.27246            0   -8.0444306            0            0            0            0            0            0 
14980000    534.65326    66090.221    372.73511   -348.26691    567.74786    219.48094    734.81081   -348.26691            0   -7.9238583            0            0            0            0            0            0 
14981000    454.23883    67860.118    410.62276   -354.93442     625.4581    270.52368    720.07031   -354.93442            0   -7.7171918            0            0            0            0            0            0 
14982000    488.28068    65794.626    412.39164   -366.07238    628.15245    262.08007     730.6084   -366.07238            0   -7.9594578            0            0            0            0            0            0 
14983000    522.88395    66158.662    382.73576    -353.6834    582.98078    229.29739    733.80522    -353.6834            0   -7.9156611            0            0            0            0            0            0 
14984000    577.17818    65482.473     392.2119   -360.62336    597.41479    236.79144    787.99355   -360.62336            0   -7.9974002            0            0            0            0            0            0 
14985000    609.80203    65646.576    424.36653   -353.33548    646.39252    293.05704    876.87417   -353.33548            0   -7.9774084            0            0            0            0            0            0 
14986000    436.15944    70498.523    403.48281   -341.43253    614.58256    273.15004    721.58677   -341.43253            0   -7.4283762            0            0            0            0            0            0 
14987000    540.67299    63594.962    396.66463   -378.22455    604.19716    225.97261    727.42913   -378.22455            0   -8.2347647            0            0            0            0            0            0 
14988000    556.13782    69054.948    410.07423   -325.37418    624.62258     299.2484    859.33234   -325.37418            0   -7.5836643            0            0            0            0            0            0 
14989000    534.42712    68636.771    406.42687   -338.28942    619.06694    280.77751    815.73741   -338.28942            0   -7.6298686            0            0            0            0            0            0 
14990000     504.3691    67156.285    412.21662   -352.75885    627.88585    275.12699    769.10888   -352.75885            0    -7.798072            0            0            0            0            0            0 
14991000    503.58038     66619.07    398.24839   -352.91353    606.60953    253.69599    742.95999   -352.91353            0   -7.8609555            0            0            0            0            0            0 
14992000    438.25729    66936.758    379.80034   -358.75098    578.50957     219.7586     647.5871   -358.75098            0   -7.8236467            0            0            0            0            0            0 
14993000    507.78367    65073.758    416.82585   -368.46225     634.9066    266.44435    748.34832   -368.46225            0   -8.0476303            0            0            0            0            0            0 
14994000    541.58866    66550.383    396.13687    -347.7712    603.39328    255.62207    781.27128    -347.7712            0   -7.8690688            0            0            0            0            0            0 
14995000    456.68617    71878.655    389.91812   -322.92261    593.92092    270.99831    749.73167   -322.92261            0   -7.2857449            0            0            0            0            0            0 
14996000     510.3324    64161.119    415.55073   -376.39417    632.96436    256.57019    734.10051   -376.39417            0   -8.1621012            0            0            0            0            0            0 
14997000    451.38033    67621.518    383.58814   -362.78165    584.27912    221.49747    666.64446   -362.78165            0   -7.7444216            0            0            0            0            0            0 
14998000    615.56499    65848.966    408.63838   -345.81051     622.4355    276.62499    867.77645   -345.81051            0   -7.9528894            0            0            0            0            0            0 
14999000    549.79426    67650.365    417.17775   -338.80019    635.44262    296.64243    839.07559   -338.80019            0   -7.7411193            0            0            0            0            0            0 
15000000    550.46245     64895.59    417.75017   -369.42208    636.31453    266.89245    787.86971   -369.42208            0   -8.0697247            0            0            0            0            0            0 
Loop time of 1309.95 on 8 procs for 5000000 steps with 512 atoms

Pair  time (%) = 699.384 (53.3901)
Bond  time (%) = 0.464248 (0.0354401)
Neigh time (%) = 31.1058 (2.37458)
Comm  time (%) = 418.91 (31.979)
Outpt time (%) = 0.239762 (0.0183031)
Other time (%) = 159.848 (12.2026)

Nlocal:    64 ave 76 max 54 min
Histogram: 1 1 1 1 1 0 1 0 1 1
Nghost:    1161.88 ave 1207 max 1099 min
Histogram: 1 0 0 2 1 0 0 0 3 1
Neighs:    5127.38 ave 6609 max 4447 min
Histogram: 3 2 0 0 1 0 1 0 0 1

Total # of neighbors = 41019
Ave neighs/atom = 80.1152
Ave special neighs/atom = 0
Neighbor list builds = 92887
Dangerous builds = 0

Averages
Group Pressure(MPa) Volume(m3) Temperature(K) PE(J) KE(J) ET(J) ET^2(J) H(J) H^2(J^2) V^2(m6) V*H(m3*J) Hconf(J) Uext*Hconf(J^2) V*Hconf(m3*J) Uext(J)
Block1 49.836955551247477558 6.704498222130796855e-26 400.56608395198469452 -2.467078959581576761e-18 4.2390653510313540573e-18 1.7719863914497861556e-18 3.1733814187895263187e-36 5.1076688592910127437e-18 2.6294738348613521325e-35 4.4997574578221786161e-51 3.4247886452369319629e-43 8.6860350825965695306e-19 -2.1244275972099780657e-36 5.8264589318242607963e-44 -2.467078959581576761e-18
Block2 49.871059131531062292 6.7024076142793410619e-26 400.08786532348847231 -2.4665116427215705677e-18 4.2340045131334748902e-18 1.767492870411901241e-18 3.1534488189535740967e-36 5.1040843062342793912e-18 2.6257452213282140512e-35 4.4965979231145917983e-51 3.4206106107532616207e-43 8.7007979310080411578e-19 -2.1281948268895750855e-36 5.8284598623527023636e-44 -2.4665116427215705677e-18
Block3 50.165954424007786372 6.7034606192009896201e-26 399.51498098359803635 -2.4641745945194764027e-18 4.2279418576749372527e-18 1.7637672631554589241e-18 3.1434637803982315589e-36 5.1209253784798626442e-18 2.643985403076884102e-35 4.4982279066427265893e-51 3.4328880445888381366e-43 8.9298352080491788038e-19 -2.1810079512596551446e-36 5.9879513724549920632e-44 -2.4641745945194764027e-18
Block4 50.355255571400199699 6.6996912202631414863e-26 399.65308750251563197 -2.4637823557429711053e-18 4.2294033956896280008e-18 1.765621039946661903e-18 3.1504120136031223805e-36 5.1329795486379851976e-18 2.6561875607045780912e-35 4.4934202670675427154e-51 3.4387122739841667727e-43 9.0357615294835064858e-19 -2.2075445626780922513e-36 6.0526644128151028926e-44 -2.4637823557429711053e-18
Block5 49.790437968060366813 6.6988385004741522571e-26 399.61046063763626535 -2.4685277662164460068e-18 4.2289522889355305571e-18 1.7604245227190868614e-18 3.1298043823520898628e-36 5.0902275741404555991e-18 2.6111992057452397206e-35 4.4918132202770216325e-51 3.4098890916960080911e-43 8.6127528520492812349e-19 -2.1073799951473709906e-36 5.7700409032453063987e-44 -2.4685277662164460068e-18
Ave_blocks 50.003932529249375705 6.7017792352696835673e-26 399.88649567984458599 -2.4660150637564083998e-18 4.2318734812929852598e-18 1.7658584175365787859e-18 3.1501020828193093781e-36 5.1111771333567194233e-18 2.6333182451432532987e-35 4.4959633549848126264e-51 3.4253777332518412372e-43 8.7930365206373146722e-19 -2.1497109866369343744e-36 5.8931150965384727038e-44 -2.4660150637564083998e-18
Stdev_blocks 0.21945184118086505376 2.1735928533344289674e-29 0.39270544796571993373 1.7924536665415590842e-21 4.1558787034754266064e-21 3.8517525397158373068e-21 1.4207659105905061412e-38 1.4641542336395661766e-20 1.5480154628646904239e-37 2.9535402997411979931e-54 9.971812791779917532e-46 1.6130020279970985002e-20 3.7995605703772436659e-38 1.0790783494338395917e-45 1.7924536665415590842e-21






Properties
Group rho(kg/m3) Cp(J/K) Cp_conf(J/K) Cp_id(J/K) Cp2(J/K) kT(1/Pa) aP(1/K) aP2(1/K) Cv(J/K) uJT(K/Pa) sos(m/s) Cv2(J/K) uJT2(K/Pa) sos2(m/s) CvNVT(J/K)
Block1 203.43407826045316256 9.3196243196654266539e-20 1.9299825266190485857e-21 3.4551344508185719686e-20 3.6481327034804766767e-20 1.2750786152187373236e-08 0.00023764887620623489938 0.00019580989228589135501 9.3077290299923517212e-20 -6.5091354286040196677e-07 621.29377671617828582 3.6400571415963508738e-20 -1.6936424015871237906e-06 621.58550642275963583 1.5097604231196306391e-20
Block2 203.49753320168338178 9.3110769376919148605e-20 3.0046811908498346367e-22 3.4528553039552151962e-20 3.4829021158637132417e-20 1.1806612579185918979e-08 -0.00023948958512011114612 -0.00021398101964343477026 9.298050245044051435e-20 -7.8880363985725561696e-07 645.59741449510067923 3.47250264102411412e-20 -2.0891224024585076034e-06 646.11096495246147242 1.3311156792533729134e-20
Block3 203.46556704029637785 9.8007372726323894108e-20 2.1874922202637544016e-21 3.4501275161030024417e-20 3.6688767381293780323e-20 1.2412180041737783437e-08 6.4907747341787352664e-05 0.00012669021374743885157 9.7998282448871589248e-20 -6.6623855545031189917e-07 629.28973379881517758 3.6654135969003146725e-20 -1.7346364674013508083e-06 629.55774702930034437 1.4788335738809413614e-20
Block4 203.58004140442389485 9.7222827817116905695e-20 1.1654055081577458939e-21 3.4507848569346986946e-20 3.5673254077504734345e-20 1.3076378336045520734e-08 -0.00015264948327735946426 -6.8823018994306874919e-05 9.7175114329859823868e-20 -7.3114703121497368865e-07 613.04909600414498527 3.5663555279351531696e-20 -1.9297282038902831396e-06 612.98198029437105561 1.4962015599803963251e-20
Block5 203.60595585659893914 9.1428248597449635e-20 1.5259108227589581986e-21 3.4505819501193971292e-20 3.6031730323952927985e-20 1.1822563205628764666e-08 1.8854608508358054189e-05 3.3641892194407456722e-05 9.1427443664417444239e-20 -7.271676108729003061e-07 644.54144832008864796 3.6029167696106603885e-20 -1.8341560583427031792e-06 644.56153252033823264 1.392904154396137752e-20
Ave_blocks 203.51663515269115123 9.4593092342892772397e-20 1.4218518393768981839e-21 3.4518968155861768453e-20 3.5940819995238670775e-20 1.2373704062957070887e-08 -1.4145567268218060152e-05 1.4667591917999202607e-05 9.4531726638702582598e-20 -7.1285407605116867435e-07 630.7542938668655097 3.5894491354133193671e-20 -1.8562571067359936619e-06 630.95954624384614817 1.4417630781260956477e-20
Stdev_blocks 0.066010632472719224517 2.5588092561559185331e-21 6.6007521224717367888e-22 1.8706536692352317904e-23 6.5841111980212612899e-22 5.0254779526014280894e-10 0.00016775109004010942907 0.00014489478564432483687 2.5753742252738747741e-21 4.9633621957093054606e-08 12.771250606035644992 6.7413565587327249545e-22 1.4237122367381173145e-07 12.865535827338096198 6.8689810297641857965e-22






