LAMMPS (28 Oct 2012)
Scanning data file ...
Reading data file ...
  orthogonal box = (0 0 0) to (100 100 100)
  2 by 2 by 2 MPI processor grid
  512 atoms
Finding 1-2 1-3 1-4 neighbors ...
  0 = max # of 1-2 neighbors
  0 = max # of 1-3 neighbors
  0 = max # of 1-4 neighbors
  1 = max # of special neighbors
WARNING: Resetting reneighboring criteria during minimization (min.cpp:173)
Setting up minimization ...
Memory usage per processor = 4.05499 Mbytes
Step Temp E_pair E_mol TotEng Press 
       0       440.15    1409.7233            0    2080.1572    443.16352 
     701       440.15   -217.27527            0    453.15855    30.418622 
Loop time of 0.0549098 on 8 procs for 701 steps with 512 atoms

Minimization stats:
  Stopping criterion = energy tolerance
  Energy initial, next-to-last, final = 
         1409.72334813     -217.256630745     -217.275265106
  Force two-norm initial, final = 5034.49 0.337455
  Force max component initial, final = 2457.89 0.147661
  Final line search alpha, max atom move = 0.254892 0.0376377
  Iterations, force evaluations = 701 710

Pair  time (%) = 0.00896385 (16.3247)
Bond  time (%) = 5.9396e-05 (0.10817)
Neigh time (%) = 0.00314033 (5.71907)
Comm  time (%) = 0.0222488 (40.5187)
Outpt time (%) = 0 (0)
Other time (%) = 0.0204975 (37.3293)

Nlocal:    64 ave 74 max 52 min
Histogram: 1 0 0 1 1 2 0 2 0 1
Nghost:    235.125 ave 266 max 224 min
Histogram: 4 0 2 0 0 1 0 0 0 1
Neighs:    316.25 ave 371 max 226 min
Histogram: 1 0 0 1 1 1 0 1 0 3

Total # of neighbors = 2530
Ave neighs/atom = 4.94141
Ave special neighs/atom = 0
Neighbor list builds = 60
Dangerous builds = 0
Setting up run ...
Memory usage per processor = 3.36354 Mbytes
Step Temp E_pair E_mol TotEng Press Volume 
     701       440.15   -217.27527            0    453.15855    30.418622      1000000 
 5000701    425.49943   -304.82652            0    343.29163    434.62817    76426.326 
Loop time of 1242.28 on 8 procs for 5000000 steps with 512 atoms

Pair  time (%) = 635.782 (51.1787)
Bond  time (%) = 0.456504 (0.0367473)
Neigh time (%) = 29.9124 (2.40787)
Comm  time (%) = 417.226 (33.5855)
Outpt time (%) = 4.48525e-05 (3.6105e-06)
Other time (%) = 158.902 (12.7912)

Nlocal:    64 ave 68 max 59 min
Histogram: 2 0 0 1 0 1 0 2 0 2
Nghost:    1064.38 ave 1082 max 1040 min
Histogram: 1 0 0 0 2 1 1 1 1 1
Neighs:    4321.5 ave 4594 max 4019 min
Histogram: 1 1 0 1 0 2 1 0 1 1

Total # of neighbors = 34572
Ave neighs/atom = 67.5234
Ave special neighs/atom = 0
Neighbor list builds = 97635
Dangerous builds = 5
Setting up run ...
Memory usage per processor = 3.93899 Mbytes
Step Press Volume Temp PotEng KinEng TotEng Enthalpy E_vdwl E_coul E_tail E_long E_bond E_angle E_dihed E_impro E_mol 
10000000    434.62817    76426.326    425.49943   -304.82652    648.11815    343.29163      827.728   -304.82652            0   -6.8522141            0            0            0            0            0            0 
10001000    416.64854    71752.301    429.62625   -340.62921    654.40409    313.77488    749.76997   -340.62921            0   -7.2985749            0            0            0            0            0            0 
10002000    485.97892    72762.817    440.61416   -313.38876    671.14081    357.75205    873.45882   -313.38876            0   -7.1972137            0            0            0            0            0            0 
10003000    475.46202    75178.044    463.84668   -317.06204    706.52844    389.46641    910.76042   -317.06204            0   -6.9659906            0            0            0            0            0            0 
10004000    438.13033    75029.358    419.11475   -316.70275    638.39305     321.6903      801.104   -316.70275            0   -6.9797951            0            0            0            0            0            0 
10005000    525.93463    69923.261     442.3778   -335.44017    673.82718    338.38702    874.71361   -335.44017            0   -7.4894897            0            0            0            0            0            0 
10006000    443.15338    75780.928     445.3669   -314.72571    678.38016    363.65445    853.42186   -314.72571            0   -6.9105718            0            0            0            0            0            0 
10007000    489.33148    71943.951    459.92305   -325.38514    700.55199    375.16685     888.5875   -325.38514            0   -7.2791324            0            0            0            0            0            0 
10008000    478.84679    75136.405    453.88435   -316.54104    691.35388    374.81284    899.52711   -316.54104            0    -6.969851            0            0            0            0            0            0 
10009000    422.02024    78569.059    411.82802   -293.70564    627.29394     333.5883    817.15983   -293.70564            0   -6.6653406            0            0            0            0            0            0 
10010000    470.43719     74745.41      456.828   -316.32929    695.83765    379.50836    892.32495   -316.32929            0   -7.0063105            0            0            0            0            0            0 
10011000    543.16861    72665.947    457.93559   -319.42686    697.52471    378.09785     953.7253   -319.42686            0   -7.2068082            0            0            0            0            0            0 
10012000    512.72125    73860.618    432.81116   -309.60513    659.25534    349.65021    901.94398   -309.60513            0   -7.0902405            0            0            0            0            0            0 
10013000    417.59528    76876.795    418.67743   -310.16795    637.72692    327.55896    795.75393   -310.16795            0   -6.8120627            0            0            0            0            0            0 
10014000    523.08137    74755.481    432.57222   -315.83358    658.89138     343.0578    913.33786   -315.83358            0   -7.0053666            0            0            0            0            0            0 
10015000    507.81831    75037.012    438.63439   -300.00709    668.12525    368.11815    923.84295   -300.00709            0   -6.9790831            0            0            0            0            0            0 
10016000    556.23728     71401.39    441.07955    -318.4446     671.8497     353.4051     932.6239    -318.4446            0   -7.3344447            0            0            0            0            0            0 
10017000    426.19072    75162.685    432.94369   -316.20601     659.4572    343.25119    810.42896   -316.20601            0    -6.967414            0            0            0            0            0            0 
10018000    428.69995    75705.565    427.32288   -320.64242    650.89562     330.2532    803.57568   -320.64242            0   -6.9174512            0            0            0            0            0            0 
10019000    559.92126    69613.595    429.08319   -326.13444    653.57691    327.44247    895.89854   -326.13444            0   -7.5228056            0            0            0            0            0            0 
10020000    497.71192    76767.668    449.04468   -296.34176    683.98214    387.64038    944.86755   -296.34176            0   -6.8217462            0            0            0            0            0            0 
10021000    551.54393    73258.319    439.11772   -308.67527    668.86145    360.18617     949.4543   -308.67527            0   -7.1485334            0            0            0            0            0            0 
10022000    402.86921    77592.804    416.28411   -313.42268    634.08143    320.65875    776.55016   -313.42268            0   -6.7492025            0            0            0            0            0            0 
10023000    496.67917    72335.476    453.62403   -322.13875    690.95737    368.81862    892.78471   -322.13875            0   -7.2397332            0            0            0            0            0            0 
10024000    565.17403    70713.117    471.05909   -324.14117    717.51435    393.37318    976.22489   -324.14117            0   -7.4058331            0            0            0            0            0            0 
10025000    483.89565    75850.627    417.65211   -306.09327    636.16517     330.0719      865.359   -306.09327            0   -6.9042217            0            0            0            0            0            0 
10026000    448.12758    76060.507    399.10474   -297.89924    607.91392    310.01469    807.10669   -297.89924            0   -6.8851703            0            0            0            0            0            0 
10027000    481.13953    72131.427    457.06402    -330.3148    696.19715    365.88235    872.02328    -330.3148            0   -7.2602133            0            0            0            0            0            0 
10028000    423.76223      78048.6    447.92898   -313.35049    682.28271    368.93222     851.2833   -313.35049            0   -6.7097878            0            0            0            0            0            0 
10029000    436.64881    72924.675    428.46535   -328.08103    652.63582     324.5548     788.9446   -328.08103            0   -7.1812394            0            0            0            0            0            0 
10030000    560.49874    68845.729    447.08976   -340.37648    681.00441    340.62792    903.39351   -340.37648            0   -7.6067107            0            0            0            0            0            0 
10031000    409.05696    75021.184    441.89417   -325.88325    673.09053    347.20728    794.75937   -325.88325            0   -6.9805556            0            0            0            0            0            0 
10032000    473.93958    74849.469    444.56338   -315.39893    677.15625    361.75731    879.11105   -315.39893            0     -6.99657            0            0            0            0            0            0 
10033000    462.07658    73570.098    443.88951   -315.76609    676.12981    360.36372     856.1462   -315.76609            0    -7.118239            0            0            0            0            0            0 
10034000    483.95128    72088.942    456.53815   -329.36506    695.39614    366.03108       874.83   -329.36506            0   -7.2644921            0            0            0            0            0            0 
10035000     405.5262    77913.648    428.18943   -313.15837    652.21554    339.05717     799.8528   -313.15837            0   -6.7214096            0            0            0            0            0            0 
10036000    551.73846    72489.421    465.91684   -321.05483     709.6817    388.62687    971.91586   -321.05483            0   -7.2243583            0            0            0            0            0            0 
10037000    471.66842    75009.006    449.28794   -312.40262    684.35267    371.95005    887.92201   -312.40262            0   -6.9816889            0            0            0            0            0            0 
10038000    500.78181    75030.291    438.13168   -304.10712    667.35952     363.2524    911.22781   -304.10712            0   -6.9797083            0            0            0            0            0            0 
10039000     494.3731     74600.53    444.34269   -305.15019    676.82009     371.6699    909.53409   -305.15019            0   -7.0199172            0            0            0            0            0            0 
10040000    543.37344    72176.953    415.32242   -313.29953    632.61659    319.31706    891.28652   -313.29953            0   -7.2556339            0            0            0            0            0            0 
10041000    471.17608    72914.756    425.81497   -317.26457    648.59879    331.33421     832.3767   -317.26457            0   -7.1822163            0            0            0            0            0            0 
10042000    472.30159     77436.52    447.84912   -305.41951    682.16107    376.74156    910.12697   -305.41951            0   -6.7628238            0            0            0            0            0            0 
10043000    560.13868    72619.115    472.38412    -320.0868    719.53262    399.44582    992.67487    -320.0868            0   -7.2114558            0            0            0            0            0            0 
10044000    547.86647    71757.135    442.40483    -323.0501    673.86836    350.81825    924.16282    -323.0501            0   -7.2980833            0            0            0            0            0            0 
10045000    497.31423    70201.167    421.52378   -332.43713    642.06247    309.62533    818.78161   -332.43713            0    -7.459841            0            0            0            0            0            0 
10046000    501.99163    74218.465    418.43029   -318.71896    637.35049    318.63153    861.98736   -318.71896            0   -7.0560547            0            0            0            0            0            0 
10047000    467.25045     77467.55    466.49433   -307.76317    710.56133    402.79816     930.6906   -307.76317            0   -6.7601149            0            0            0            0            0            0 
10048000    571.08951    72609.644    438.49197   -305.64325     667.9083    362.26505    967.01297   -305.64325            0   -7.2123965            0            0            0            0            0            0 
10049000    446.62913    71179.869    452.18173   -339.08527    688.76047     349.6752    813.31437   -339.08527            0   -7.3572704            0            0            0            0            0            0 
10050000    456.37498    75091.794    433.34139   -312.54031    660.06298    347.52267     847.3157   -312.54031            0   -6.9739917            0            0            0            0            0            0 
10051000    430.61986    76314.961    430.87891   -309.91947    656.31214    346.39267      825.662   -309.91947            0   -6.8622134            0            0            0            0            0            0 
10052000    521.59635     72857.52    456.18988   -323.92297    694.86566     370.9427    925.16604   -323.92297            0   -7.1878585            0            0            0            0            0            0 
10053000    548.68961    76115.383    445.37718   -295.96544    678.39582    382.43038    991.51139   -295.96544            0   -6.8802064            0            0            0            0            0            0 
10054000    385.57813    76313.259    423.83509   -315.81153    645.58305    329.77151    758.90093   -315.81153            0   -6.8623664            0            0            0            0            0            0 
10055000    533.09289    69986.143    457.14802   -335.68308    696.32508    360.64201    904.75719   -335.68308            0   -7.4827605            0            0            0            0            0            0 
10056000     483.3698    76753.157    440.02957    -306.5848    670.25037    363.66557    904.73333    -306.5848            0   -6.8230359            0            0            0            0            0            0 
10057000    496.15576     79587.77    431.13357   -277.87871    656.70005    378.82133    954.71229   -277.87871            0   -6.5800253            0            0            0            0            0            0 
10058000    513.86332    74429.488    455.34433   -314.01576    693.57772    379.56197    937.34917   -314.01576            0   -7.0360492            0            0            0            0            0            0 
10059000    480.55595    73397.479    466.52171   -317.46891    710.60304    393.13413    907.53417   -317.46891            0     -7.13498            0            0            0            0            0            0 
10060000      468.786    71912.615    423.89354   -321.35337    645.67207     324.3187     815.9682   -321.35337            0   -7.2823043            0            0            0            0            0            0 
10061000    497.87434    74616.475    439.04552    -306.8406    668.75148    361.91087     903.7001    -306.8406            0   -7.0184172            0            0            0            0            0            0 
10062000    447.58394    78637.039    468.17583   -298.16992    713.12259    414.95267    928.26008   -298.16992            0   -6.6595787            0            0            0            0            0            0 
10063000    523.04453    73626.642    427.17298    -308.4256     650.6673     342.2417    903.87073    -308.4256            0   -7.1127724            0            0            0            0            0            0 
10064000    410.80523     75403.06    433.18248   -314.16289    659.82093    345.65804    797.41081   -314.16289            0   -6.9452028            0            0            0            0            0            0 
10065000    545.02743    73274.339    453.91488   -301.59855    691.40039    389.80183    972.23508   -301.59855            0   -7.1469706            0            0            0            0            0            0 
10066000    493.22972    76681.425    433.73881   -297.08263    660.66833     363.5857    915.17432   -297.08263            0   -6.8294185            0            0            0            0            0            0 
10067000    623.03486    70396.033    449.33919   -315.16249    684.43072    369.26823    1008.9094   -315.16249            0   -7.4391911            0            0            0            0            0            0 
10068000     347.7368    79713.244    440.53278   -306.42314    671.01685    364.59371    768.85022   -306.42314            0    -6.569668            0            0            0            0            0            0 
10069000    498.01215    72966.453    430.21821   -320.19688    655.30577    335.10889    865.06397   -320.19688            0   -7.1771276            0            0            0            0            0            0 
10070000    407.41311    73766.837    421.14317    -326.3145    641.48273    315.16823    753.46882    -326.3145            0   -7.0992544            0            0            0            0            0            0 
10071000     426.7996    75632.124    427.19614    -309.1048    650.70257    341.59778    812.36497    -309.1048            0   -6.9241682            0            0            0            0            0            0 
10072000    560.43568    71560.786    434.99344   -323.92647    662.57936    338.65289    923.54636   -323.92647            0   -7.3181078            0            0            0            0            0            0 
10073000    540.77166    72072.557     413.3215   -308.08192     629.5688    321.48688     889.8943   -308.08192            0   -7.2661435            0            0            0            0            0            0 
10074000    530.28585    78481.512    455.37851   -285.05866    693.62979    408.57112    1015.5216   -285.05866            0    -6.672776            0            0            0            0            0            0 
10075000    535.23412    72347.713    431.17149   -327.06484     656.7578    329.69297    894.42769   -327.06484            0   -7.2385086            0            0            0            0            0            0 
10076000    454.64555    72518.391    406.58916   -322.62031    619.31414    296.69383    777.52985   -322.62031            0   -7.2214722            0            0            0            0            0            0 
10077000    446.62368    78801.354     440.2322   -288.44133    670.55902    382.11769    895.39411   -288.44133            0   -6.6456922            0            0            0            0            0            0 
10078000    505.45357    76072.209    436.76669   -304.52583    665.28037    360.75454    921.52248   -304.52583            0   -6.8841112            0            0            0            0            0            0 
10079000    553.84433    72331.572    470.29644   -317.34826    716.35268    399.00442    983.24471   -317.34826            0   -7.2401239            0            0            0            0            0            0 
10080000    486.09293    72695.652    446.28096    -323.6601    679.77245    356.11235    871.46395    -323.6601            0   -7.2038634            0            0            0            0            0            0 
10081000    459.26548    71558.021     438.9241   -343.91505    668.56652    324.65147    803.94108   -343.91505            0   -7.3183905            0            0            0            0            0            0 
10082000     438.5802    73474.628    433.65921   -332.34617    660.54708    328.20091    798.16243   -332.34617            0   -7.1274882            0            0            0            0            0            0 
10083000    387.54346    77314.081    420.27227   -298.40332    640.15617    341.75286    778.72616   -298.40332            0   -6.7735338            0            0            0            0            0            0 
10084000      471.691    77172.518    446.69826   -292.96329    680.40808    387.44478    918.32453   -292.96329            0    -6.785959            0            0            0            0            0            0 
10085000     602.8553    70595.582    430.24945   -318.49901    655.35335    336.85434    957.53254   -318.49901            0   -7.4181631            0            0            0            0            0            0 
10086000    512.70889    73068.797    446.52923   -313.19843    680.15061    366.95218    913.31192   -313.19843            0   -7.1670749            0            0            0            0            0            0 
10087000    512.73741    76597.249    450.23703   -295.13084    685.79832    390.66748    963.44249   -295.13084            0   -6.8369237            0            0            0            0            0            0 
10088000    524.69405    72952.394    453.61919   -317.17838       690.95    373.77162    932.01243   -317.17838            0   -7.1785108            0            0            0            0            0            0 
10089000    460.39085    73130.798    441.92208   -325.15353    673.13303     347.9795    839.00368   -325.15353            0   -7.1609987            0            0            0            0            0            0 
10090000    426.97605    85196.386    443.40852   -264.01744    675.39717    411.37973    941.89828   -264.01744            0   -6.1468517            0            0            0            0            0            0 
10091000    463.90334    74521.914    443.40771   -323.70679    675.39594    351.68915    855.87121   -323.70679            0   -7.0273228            0            0            0            0            0            0 
10092000    542.15764    72732.968    406.62291   -307.96267    619.36555    311.40288    886.48886   -307.96267            0   -7.2001674            0            0            0            0            0            0 
10093000    465.07396    76303.239    416.39941   -301.98998    634.25706    332.26708    849.80346   -301.98998            0   -6.8632676            0            0            0            0            0            0 
10094000    587.47986    72902.745    440.75154   -315.49494    671.35007    355.85513    980.47063   -315.49494            0   -7.1833995            0            0            0            0            0            0 
10095000     415.5544    74733.192    450.54335   -329.93433     686.2649    356.33058     809.2462   -329.93433            0   -7.0074558            0            0            0            0            0            0 
10096000    519.03401    74155.889    440.85123   -307.29599    671.50192    364.20594    925.53477   -307.29599            0   -7.0620089            0            0            0            0            0            0 
10097000    475.17687    76331.919    434.77207   -308.23284    662.24218    354.00934    882.98704   -308.23284            0   -6.8606889            0            0            0            0            0            0 
10098000    463.38491    74068.405    430.23853   -312.58157    655.33672    342.75515    843.30896   -312.58157            0     -7.07035            0            0            0            0            0            0 
10099000    468.70185    72498.677    464.46684   -332.79069    707.47308    374.68239    870.24968   -332.79069            0   -7.2234359            0            0            0            0            0            0 
10100000    498.79039    75024.636    446.92486    -307.6448    680.75324    373.10844    918.86362    -307.6448            0   -6.9802344            0            0            0            0            0            0 
10101000    542.96763    69891.892    445.65448   -335.60581     678.8182    343.21239    896.66014   -335.60581            0   -7.4928512            0            0            0            0            0            0 
10102000    447.37363    74495.134    425.64434   -314.39163    648.33887    333.94725    819.98967   -314.39163            0    -7.029849            0            0            0            0            0            0 
10103000    551.15696    71066.598    455.19798   -324.75709     693.3548    368.59771    939.83522   -324.75709            0    -7.368997            0            0            0            0            0            0 
10104000    500.39277    73154.714    433.15519   -320.42916    659.77936    339.35021    873.21248   -320.42916            0   -7.1586576            0            0            0            0            0            0 
10105000    472.89769    72424.626    418.09972   -326.45289    636.84695    310.39407      809.887   -326.45289            0   -7.2308216            0            0            0            0            0            0 
10106000    477.26808    75344.012    421.92565   -304.56942    642.67459    338.10517    862.53456   -304.56942            0   -6.9506459            0            0            0            0            0            0 
10107000    481.33164    72325.548    446.99477   -330.64141    680.85973    350.21832    857.92402   -330.64141            0   -7.2407269            0            0            0            0            0            0 
10108000    584.50262    73100.273    450.66689   -301.61071    686.45307    384.84235    1007.9762   -301.61071            0   -7.1639889            0            0            0            0            0            0 
10109000    356.47338    80735.365    435.32099   -296.88638    663.07829    366.19192    785.91882   -296.88638            0    -6.486495            0            0            0            0            0            0 
10110000    529.11171    74044.808    435.46668   -302.84266    663.30021    360.45755    931.82813   -302.84266            0   -7.0726032            0            0            0            0            0            0 
10111000    489.18928    77417.817    480.12952   -297.52936    731.33037    433.80101    986.12479   -297.52936            0   -6.7644577            0            0            0            0            0            0 
10112000    525.46867    72859.331    461.55924   -316.02437    703.04424    387.01986    945.37162   -316.02437            0   -7.1876799            0            0            0            0            0            0 
10113000    555.49259    74810.064    434.72262   -303.12601    662.16686    359.04085    965.09885   -303.12601            0   -7.0002553            0            0            0            0            0            0 
10114000    543.20853    77352.612    464.41099   -296.06597      707.388    411.32202    1024.1202   -296.06597            0   -6.7701598            0            0            0            0            0            0 
10115000    502.86598    74308.181    417.17989   -308.97004    635.44588    326.47584    871.43602   -308.97004            0   -7.0475355            0            0            0            0            0            0 
10116000     430.7471    75160.014    438.48271   -323.62036     667.8942    344.27385    816.42941   -323.62036            0   -6.9676616            0            0            0            0            0            0 
10117000     438.5926    75528.247    418.36407    -317.0628    637.24962    320.18682    803.29746    -317.0628            0   -6.9336912            0            0            0            0            0            0 
10118000    428.37042    78646.553    423.39411   -301.12429    644.91135    343.78706    835.11906   -301.12429            0    -6.658773            0            0            0            0            0            0 
10119000     479.1761    72791.172    454.26172   -325.24484     691.9287    366.68386    875.36982   -325.24484            0   -7.1944101            0            0            0            0            0            0 
10120000    518.46329    73631.468    451.87278   -314.40993    688.28988    373.87995    930.62628   -314.40993            0   -7.1123062            0            0            0            0            0            0 
10121000    481.49798    73390.848    444.36963   -322.21308    676.86113    354.64805    870.00989   -322.21308            0   -7.1356247            0            0            0            0            0            0 
10122000    463.18839    71951.468    448.26554   -336.22215    682.79536    346.57321    832.61455   -336.22215            0   -7.2783719            0            0            0            0            0            0 
10123000    566.14312    73829.327     441.1527   -310.75794    671.96112    361.20318    970.78363   -310.75794            0   -7.0932456            0            0            0            0            0            0 
10124000    491.58404    74837.876    438.85613   -307.71583      668.463    360.74716    897.27853   -307.71583            0   -6.9976538            0            0            0            0            0            0 
10125000    456.85397    73701.653    427.60174    -321.5471    651.32038    329.77328    820.82871    -321.5471            0   -7.1055333            0            0            0            0            0            0 
10126000    407.55405    75377.631    434.41541   -324.92401    661.69891    336.77491    784.80129   -324.92401            0   -6.9475458            0            0            0            0            0            0 
10127000     607.2059    71811.144    456.18346   -320.32066    694.85588    374.53522     1010.457   -320.32066            0   -7.2925944            0            0            0            0            0            0 
10128000     449.6865    74191.952      457.636   -321.83102    697.06838    375.23735    861.80423   -321.83102            0   -7.0585762            0            0            0            0            0            0 
10129000    445.61123    75071.786    457.42495   -314.25714    696.74692    382.48977      870.365   -314.25714            0   -6.9758503            0            0            0            0            0            0 
10130000    496.51377     69930.18    429.23856    -335.2047    653.81357    318.60888    824.98339    -335.2047            0   -7.4887487            0            0            0            0            0            0 
10131000    466.92634    74170.464    433.94262   -314.94623    660.97877    346.03254    851.10682   -314.94623            0   -7.0606211            0            0            0            0            0            0 
10132000    493.52809     74985.92    440.75384   -318.04562    671.35357    353.30796    893.02669   -318.04562            0   -6.9838383            0            0            0            0            0            0 
10133000     425.2423    74587.232    422.79381   -320.60924    643.99697    323.38773    785.95706   -320.60924            0   -7.0211688            0            0            0            0            0            0 
10134000    490.80848    74627.255    458.36922   -303.86274    698.18521    394.32247    928.49975   -303.86274            0   -7.0174033            0            0            0            0            0            0 
10135000    532.05406    73877.904    430.95358   -311.46936    656.42588    344.95652    918.20936   -311.46936            0   -7.0885816            0            0            0            0            0            0 
10136000    515.95777    74188.246    446.39437   -301.30902     679.9452    378.63618    936.88157   -301.30902            0   -7.0589288            0            0            0            0            0            0 
10137000     524.7113    74517.903    432.89169   -305.09298      659.378    354.28502    924.52404   -305.09298            0   -7.0277011            0            0            0            0            0            0 
10138000      459.624    79045.658    441.25336   -294.79482    672.11444    377.31962     907.1741   -294.79482            0   -6.6251526            0            0            0            0            0            0 
10139000    592.05087    71282.812    432.25711   -309.71641    658.41142    348.69501    964.18322   -309.71641            0   -7.3466455            0            0            0            0            0            0 
10140000    520.56676    77745.472    454.85541   -292.71903      692.833    400.11397    990.35232   -292.71903            0   -6.7359492            0            0            0            0            0            0 
10141000     454.3001     75516.14    423.89085   -309.77848    645.66798     335.8895    836.22176   -309.77848            0   -6.9348028            0            0            0            0            0            0 
10142000    609.35688    72145.805    419.31637   -298.68409    638.70015    340.01606    981.16466   -298.68409            0   -7.2587664            0            0            0            0            0            0 
10143000    511.91558    76468.398    462.43854   -298.69162    704.38359    405.69196    976.58695   -298.69162            0   -6.8484441            0            0            0            0            0            0 
10144000    410.56646    76298.251     433.8403   -316.43835    660.82291    344.38456    801.23489   -316.43835            0   -6.8637163            0            0            0            0            0            0 
10145000    448.07293    77263.369    429.59348   -308.62221    654.35419    345.73198    850.62369   -308.62221            0   -6.7779797            0            0            0            0            0            0 
10146000    476.32986    68656.902    442.21333   -346.89414    673.57667    326.68253    803.62709   -346.89414            0   -7.6276314            0            0            0            0            0            0 
10147000    477.23304    74284.166    446.36735   -317.13379    679.90404    362.77025    879.78465   -317.13379            0   -7.0498139            0            0            0            0            0            0 
10148000    607.11101    70722.656    450.10706     -321.246    685.60034    364.35434     990.5392     -321.246            0   -7.4048342            0            0            0            0            0            0 
10149000    537.69838    73900.386    468.67047   -309.85022    713.87601    404.02579    983.53631   -309.85022            0    -7.086425            0            0            0            0            0            0 
10150000    531.55655    74972.768    427.39625   -304.26088    651.00738     346.7465    927.95091   -304.26088            0   -6.9850635            0            0            0            0            0            0 
10151000    442.81062    75283.448    440.07151   -317.28295    670.31426     353.0313     839.2072   -317.28295            0   -6.9562375            0            0            0            0            0            0 
10152000    469.01746    70324.366    450.00149   -340.91174    685.43954     344.5278    825.55621   -340.91174            0   -7.4467723            0            0            0            0            0            0 
10153000    555.78294    75572.281    480.45444    -303.7189    731.82528    428.10638    1040.6593    -303.7189            0   -6.9296512            0            0            0            0            0            0 
10154000    504.86689    75496.192    426.64392   -304.42304    649.86143    345.43839    901.31426   -304.42304            0   -6.9366353            0            0            0            0            0            0 
10155000    493.03914    69841.439    446.68832   -340.85479    680.39293    339.53814    841.73093   -340.85479            0   -7.4982639            0            0            0            0            0            0 
10156000    463.99408    74440.102    434.59749   -311.41793    661.97626    350.55833    854.28539   -311.41793            0   -7.0350461            0            0            0            0            0            0 
10157000    477.65669    75184.321    427.29588     -298.936     650.8545     351.9185    875.66247     -298.936            0    -6.965409            0            0            0            0            0            0 
10158000    435.04176    75464.492    420.81722   -309.47999    640.98623    331.50624    810.30111   -309.47999            0    -6.939549            0            0            0            0            0            0 
10159000    506.72244    70904.211    426.60826   -340.90404    649.80712    308.90308    832.88711   -340.90404            0   -7.3858737            0            0            0            0            0            0 
10160000    469.45384    76468.749    442.57403   -306.66071    674.12608    367.46537    891.00887   -306.66071            0   -6.8484126            0            0            0            0            0            0 
10161000    479.38043    76573.719    490.80304   -312.85968    747.58821    434.72853    970.07622   -312.85968            0   -6.8390246            0            0            0            0            0            0 
10162000    545.20165    71152.597    440.72647   -326.50984    671.31188    344.80203    910.55105   -326.50984            0   -7.3600903            0            0            0            0            0            0 
10163000    477.31127    73021.265    421.11718     -320.535    641.44314    320.90814    829.21612     -320.535            0   -7.1717403            0            0            0            0            0            0 
10164000    494.21747    76090.556    454.56837   -301.11517    692.39578    391.28061    939.71507   -301.11517            0   -6.8824513            0            0            0            0            0            0 
10165000    479.70868    69651.747     437.7677   -346.71541     666.8051     320.0897    807.37743   -346.71541            0    -7.518685            0            0            0            0            0            0 
10166000    453.23961    78577.471    452.49752   -289.47608    689.24148     399.7654    919.16521   -289.47608            0   -6.6646272            0            0            0            0            0            0 
10167000    504.92602     77489.52    457.69289   -291.26853    697.15503    405.88649      976.506   -291.26853            0   -6.7581983            0            0            0            0            0            0 
10168000    450.26176    72905.072    442.40977    -320.5472    673.87587    353.32868    832.06755    -320.5472            0   -7.1831703            0            0            0            0            0            0 
10169000    487.33403    74154.419    433.75217   -311.22709    660.68867    349.46158    876.49684   -311.22709            0   -7.0621488            0            0            0            0            0            0 
10170000    484.75361    74861.553    427.39348   -319.11493    651.00315    331.88822    861.13201   -319.11493            0   -6.9954406            0            0            0            0            0            0 
10171000    493.23003    68750.432    433.82893   -341.08957     660.8056    319.71604    814.25536   -341.08957            0   -7.6172546            0            0            0            0            0            0 
10172000    427.55901    77393.611    465.16168   -304.17389    708.53145    404.35755    886.94615   -304.17389            0   -6.7665734            0            0            0            0            0            0 
10173000    560.93871    72803.964    452.34313   -325.63953    689.00632    363.36679    958.95533   -325.63953            0    -7.193146            0            0            0            0            0            0 
10174000    468.96663    72946.442    443.38861   -326.30836    675.36684    349.05847    847.96817   -326.30836            0   -7.1790965            0            0            0            0            0            0 
10175000    452.85002    71157.295    437.69196    -334.3078    666.68974    332.38194    802.32984    -334.3078            0   -7.3596044            0            0            0            0            0            0 
10176000     496.5563    73306.905    436.05955   -323.80423    664.20326    340.39902    871.27035   -323.80423            0   -7.1437956            0            0            0            0            0            0 
10177000    474.36213    73920.744     464.7724   -319.96185    707.93851    387.97665    899.36665   -319.96185            0   -7.0844734            0            0            0            0            0            0 
10178000    502.99636    72215.213    436.56732   -330.69941     664.9767    334.27729    864.02541   -330.69941            0   -7.2517898            0            0            0            0            0            0 
10179000    486.52583    75198.855    433.25858   -309.96116    659.93684    349.97568    883.54767   -309.96116            0   -6.9640628            0            0            0            0            0            0 
10180000    556.44576    73544.406    466.51786   -303.06715    710.59718    407.53003    1004.3569   -303.06715            0   -7.1207257            0            0            0            0            0            0 
10181000    557.35934    72546.117    428.38765   -315.11323    652.51747    337.40423    927.09638   -315.11323            0   -7.2187123            0            0            0            0            0            0 
10182000    344.33619    77638.004    416.60181   -308.78155    634.56535     325.7838    715.66555   -308.78155            0   -6.7452732            0            0            0            0            0            0 
10183000    509.29105    72597.621    426.46362   -319.83845    649.58681    329.74836    868.96629   -319.83845            0    -7.213591            0            0            0            0            0            0 
10184000    497.46965    74517.869    462.22813   -308.35324    704.06308    395.70984    936.34329   -308.35324            0   -7.0277043            0            0            0            0            0            0 
10185000    499.65057    76538.424     464.0584   -312.52978    706.85095    394.32116    952.04832   -312.52978            0   -6.8421783            0            0            0            0            0            0 
10186000    485.11756    71160.042    419.38121   -329.99696    638.79892    308.80196    812.25513   -329.99696            0   -7.3593203            0            0            0            0            0            0 
10187000    443.43821    78528.781    447.32552   -300.75857    681.36352    380.60494    888.45775   -300.75857            0   -6.6687594            0            0            0            0            0            0 
10188000    567.81362    73439.036    423.06589   -306.27988    644.41141    338.13153    946.27865   -306.27988            0   -7.1309425            0            0            0            0            0            0 
10189000    416.46974    76966.022    435.73981   -303.17653    663.71624    360.53971    828.01471   -303.17653            0   -6.8041654            0            0            0            0            0            0 
10190000    434.88029    76134.219    456.97422   -310.35078    696.06036    385.70959    868.57435   -310.35078            0   -6.8785042            0            0            0            0            0            0 
10191000    505.07738    70799.914    448.08004   -330.72568    682.51279    351.78711    873.30179   -330.72568            0    -7.396754            0            0            0            0            0            0 
10192000    389.63935    76484.138    435.54249   -317.28673    663.41568    346.12895    780.74933   -317.28673            0   -6.8470346            0            0            0            0            0            0 
10193000    432.43375    73946.018    437.69101   -335.00088    666.68829    331.68741    798.03557   -335.00088            0    -7.082052            0            0            0            0            0            0 
10194000    523.85914    74316.661    440.36195    -313.3028    670.75666    357.45386    925.22931    -313.3028            0   -7.0467313            0            0            0            0            0            0 
10195000    465.48297    74544.914    452.90571   -317.87311    689.86323    371.99012    878.04509   -317.87311            0   -7.0251546            0            0            0            0            0            0 
10196000    475.12045    72930.633    446.76428   -329.91998    680.50864    350.58866    855.93555   -329.91998            0   -7.1806526            0            0            0            0            0            0 
10197000    447.55009    78713.398    420.73505   -290.51116    640.86108    350.34992    864.11691   -290.51116            0   -6.6531182            0            0            0            0            0            0 
10198000    532.17999    71904.372    431.64459    -322.4902    657.47843    334.98823    893.05958    -322.4902            0   -7.2831392            0            0            0            0            0            0 
10199000    610.77751    73038.693    465.31421   -305.65623    708.76378    403.10756    1053.7044   -305.65623            0    -7.170029            0            0            0            0            0            0 
10200000    463.98016    75912.567    456.26309   -307.23647    694.97717     387.7407    901.41634   -307.23647            0   -6.8985883            0            0            0            0            0            0 
10201000    468.49246    72310.718    428.93022   -329.68152    653.34391    323.66239    817.72407   -329.68152            0   -7.2422119            0            0            0            0            0            0 
10202000     470.6333    74595.535    446.31177   -311.09961    679.81939    368.71977    880.72145   -311.09961            0   -7.0203873            0            0            0            0            0            0 
10203000    513.41188    69655.253    447.73334   -334.47682    681.98471    347.50789    869.05756   -334.47682            0   -7.5183066            0            0            0            0            0            0 
10204000    419.99591    74558.452    444.84785    -324.0449    677.58955    353.54465    810.23078    -324.0449            0    -7.023879            0            0            0            0            0            0 
10205000    431.12792     73442.16    422.33477    -325.1612    643.29776    318.13656    779.90844    -325.1612            0   -7.1306392            0            0            0            0            0            0 
10206000      449.638    73529.658    465.70306   -324.46277    709.35607    384.89331    867.06471   -324.46277            0    -7.122154            0            0            0            0            0            0 
10207000    512.75987    74927.142    447.91006   -303.93743    682.25389    378.31646    938.62739   -303.93743            0   -6.9893169            0            0            0            0            0            0 
10208000    492.31943    75466.473    434.76673   -301.67059    662.23405    360.56346    902.41077   -301.67059            0   -6.9393669            0            0            0            0            0            0 
10209000    472.41092    71213.382    421.96208   -329.55081    642.73008    313.17927    803.81303   -329.55081            0   -7.3538081            0            0            0            0            0            0 
10210000    466.83454    73551.218    416.01046   -327.26592    633.66462    306.39869    807.15766   -327.26592            0   -7.1200663            0            0            0            0            0            0 
10211000    548.25073    68163.857     440.3296   -346.27583    670.70738    324.43155    869.44756   -346.27583            0   -7.6828039            0            0            0            0            0            0 
10212000    477.32484    77733.295    461.78607   -301.92183    703.38974    401.46791    942.59217   -301.92183            0   -6.7370043            0            0            0            0            0            0 
10213000    463.39751    74468.226    470.09017   -325.04238    716.03849    390.99611     894.2656   -325.04238            0   -7.0323892            0            0            0            0            0            0 
10214000    510.23096     67937.61    448.15842   -345.19462    682.63218    337.43756    842.97458   -345.19462            0   -7.7083892            0            0            0            0            0            0 
10215000    439.68749    74851.535    452.02761   -322.48421    688.52571    366.04151    846.01882   -322.48421            0   -6.9963769            0            0            0            0            0            0 
10216000    504.56742    73598.676    415.73963   -313.68872    633.25208    319.56337    861.14645   -313.68872            0   -7.1154751            0            0            0            0            0            0 
10217000    498.77652    73099.345     461.6495   -327.50809    703.18172    375.67363    907.40879   -327.50809            0   -7.1640799            0            0            0            0            0            0 
10218000    500.79627    76193.554    420.29463    -302.0868    640.19024    338.10343    894.59067    -302.0868            0   -6.8731476            0            0            0            0            0            0 
10219000    497.15721    73441.045    407.47939   -311.63937    620.67013    309.03077    841.51712   -311.63937            0   -7.1307474            0            0            0            0            0            0 
10220000    436.53961     73306.61    432.61297   -322.96752    658.95346    335.98594    802.69118   -322.96752            0   -7.1438244            0            0            0            0            0            0 
10221000    465.52419    75372.962    419.56798    -308.3889     639.0834     330.6945    842.41607    -308.3889            0   -6.9479762            0            0            0            0            0            0 
10222000    429.01206    73117.817    414.42826   -325.98869    631.25461    305.26592    762.74223   -325.98869            0     -7.16227            0            0            0            0            0            0 
10223000    375.58106    72379.914    414.75826   -334.19834    631.75727    297.55893    694.01733   -334.19834            0   -7.2352883            0            0            0            0            0            0 
10224000    426.80943     78414.59    447.66135   -296.73406    681.87506      385.141    873.23872   -296.73406            0   -6.6784707            0            0            0            0            0            0 
10225000    533.13533    73079.155    457.98134   -319.25639    697.59439    378.33801    946.54539   -319.25639            0   -7.1660591            0            0            0            0            0            0 
10226000    553.91957    71679.047    443.72592   -318.14098    675.88064    357.73965      936.788   -318.14098            0   -7.3060339            0            0            0            0            0            0 
10227000    437.97502    74682.169    413.07032   -314.70286    629.18621    314.48335    791.50946   -314.70286            0   -7.0122434            0            0            0            0            0            0 
10228000     557.0062    72414.604    439.25202   -313.59904    669.06601    355.46697    943.71716   -313.59904            0   -7.2318223            0            0            0            0            0            0 
10229000    480.24893    76455.354    450.86863   -311.43772    686.76037    375.32265    910.81122   -311.43772            0   -6.8496124            0            0            0            0            0            0 
10230000    492.68252    73482.328    453.29629   -322.22251    690.45816    368.23565    896.22596   -322.22251            0   -7.1267413            0            0            0            0            0            0 
10231000    411.76068    74802.971    442.43931   -316.46787    673.92087    357.45301    806.65286   -316.46787            0    -7.000919            0            0            0            0            0            0 
10232000    564.90128    69257.512    453.68369   -330.48368    691.04825    360.56457    931.14298   -330.48368            0   -7.5614837            0            0            0            0            0            0 
10233000    452.80314    77446.938    428.30717   -295.11091    652.39489    357.28398    868.71795   -295.11091            0   -6.7619142            0            0            0            0            0            0 
10234000    476.73865    77390.728    461.71544   -302.11752    703.28216    401.16464    939.24257   -302.11752            0   -6.7668255            0            0            0            0            0            0 
10235000    484.61366    71714.678    419.63695   -328.06414    639.18845    311.12431    817.97447   -328.06414            0    -7.302404            0            0            0            0            0            0 
10236000    398.74956    72320.939     414.3556   -334.34682    631.14393    296.79711    717.36893   -334.34682            0   -7.2411884            0            0            0            0            0            0 
10237000    545.99505    75040.186    466.66785    -306.6847    710.82563    404.14093    1001.6693    -306.6847            0   -6.9787879            0            0            0            0            0            0 
10238000    557.58557    76425.043    473.54308   -293.92786    721.29795    427.37009    1048.8443   -293.92786            0   -6.8523291            0            0            0            0            0            0 
10239000    564.01385    72550.468    466.43289   -309.85708    710.46774    400.61066    997.37914   -309.85708            0   -7.2182793            0            0            0            0            0            0 
10240000    434.20929    73618.754    428.05843   -324.67524    652.01601    327.34076    793.53132   -324.67524            0   -7.1135345            0            0            0            0            0            0 
10241000    378.55376    78331.276    425.86545   -306.46735    648.67567    342.20832    774.66106   -306.46735            0    -6.685574            0            0            0            0            0            0 
10242000    594.34861    70694.856    461.98792   -320.21525    703.69719    383.48195    996.26247   -320.21525            0   -7.4077461            0            0            0            0            0            0 
10243000    492.73814    73494.575    433.21536   -317.97107    659.87101    341.89995    870.03787   -317.97107            0   -7.1255537            0            0            0            0            0            0 
10244000    434.91236    74764.029    436.27629   -323.45735    664.53341    341.07605    815.28565   -323.45735            0   -7.0045656            0            0            0            0            0            0 
10245000    597.81732    72581.003    450.76106   -302.00963    686.59651    384.58688    1017.3882   -302.00963            0   -7.2152427            0            0            0            0            0            0 
10246000     444.7302    78145.127    451.58219   -294.68103    687.84726    393.16623    900.01035   -294.68103            0   -6.7014997            0            0            0            0            0            0 
10247000    518.48306    72971.826    460.46313   -317.90083    701.37464    383.47381    935.25346   -317.90083            0   -7.1765992            0            0            0            0            0            0 
10248000    440.04381    71083.849    449.44554   -344.14872    684.59271      340.444    796.63082   -344.14872            0   -7.3672086            0            0            0            0            0            0 
10249000     414.3661    75237.335    434.24573   -319.22216    661.44047    342.21831    796.88539   -319.22216            0    -6.960501            0            0            0            0            0            0 
10250000    447.05043    75344.058    437.98022   -310.65136    667.12882    356.47746    847.70354   -310.65136            0   -6.9506416            0            0            0            0            0            0 
10251000    512.26569    74209.271    484.78427   -319.28956    738.42046     419.1309    973.53869   -319.28956            0   -7.0569288            0            0            0            0            0            0 
10252000    520.68188    76278.201    455.81845   -303.88737     694.2999    390.41253    969.63953   -303.88737            0   -6.8655204            0            0            0            0            0            0 
10253000    531.10075    72371.163    453.72175   -322.57381    691.10623    368.53241    929.08758   -322.57381            0   -7.2361631            0            0            0            0            0            0 
10254000    442.17914    74637.497    445.16896   -313.36211    678.07865    364.71654    846.03355   -313.36211            0   -7.0164404            0            0            0            0            0            0 
10255000    598.71021    72339.785    462.30824   -312.94574     704.1851    391.23936    1022.8796   -312.94574            0   -7.2393019            0            0            0            0            0            0 
10256000    422.83778    75210.489    441.64952   -321.32211    672.71788    351.39577    815.19292   -321.32211            0   -6.9629856            0            0            0            0            0            0 
10257000    607.89604    68080.038    418.71302   -327.45707    637.78113    310.32406    913.89038   -327.45707            0   -7.6922628            0            0            0            0            0            0 
10258000    456.29002    77298.521    453.94398   -305.23514    691.44471    386.20957    900.59427   -305.23514            0   -6.7748974            0            0            0            0            0            0 
10259000    570.04529    74290.907    472.21556   -313.78225    719.27587    405.49363     1023.113   -313.78225            0   -7.0491742            0            0            0            0            0            0 
10260000     575.3895    71773.496    428.67494   -313.85545    652.95507    339.09962    941.38445   -313.85545            0   -7.2964196            0            0            0            0            0            0 
10261000    424.49584     76656.26    436.04607   -299.81056    664.18272    364.37217    838.93854   -299.81056            0   -6.8316605            0            0            0            0            0            0 
10262000    522.40109     73957.03    454.76151   -314.72197    692.68997    377.96799    941.42325   -314.72197            0   -7.0809975            0            0            0            0            0            0 
10263000    484.09046    70698.047     454.1381   -340.36999     691.7404    351.37041    850.49599   -340.36999            0   -7.4074118            0            0            0            0            0            0 
10264000    505.93451    69723.515    421.80946   -329.92935    642.49761    312.56827    827.02573   -329.92935            0   -7.5109458            0            0            0            0            0            0 
10265000    426.28806    75585.974    410.42824   -314.28993    625.16181    310.87188    780.78792   -314.28993            0   -6.9283958            0            0            0            0            0            0 
10266000    498.86261    75092.946    456.48742   -311.19919    695.31887    384.11968    930.45085   -311.19919            0   -6.9738847            0            0            0            0            0            0 
10267000    531.17367    72008.935    420.86968   -323.28584    641.06614     317.7803    875.60639   -323.28584            0   -7.2725634            0            0            0            0            0            0 
10268000    550.62674    75508.773    457.28392   -300.32207    696.53209    396.21002    1002.5701   -300.32207            0   -6.9354794            0            0            0            0            0            0 
10269000    462.82236    74717.734    446.06883   -315.15191    679.44933    364.29742    868.62639   -315.15191            0   -7.0089056            0            0            0            0            0            0 
10270000    447.51539    73183.413     438.3656   -324.06469    667.71582    343.65113    821.28655   -324.06469            0   -7.1558502            0            0            0            0            0            0 
10271000    445.29022    71305.555     410.9924   -332.36809    626.02113    293.65304    756.71851   -332.36809            0   -7.3443022            0            0            0            0            0            0 
10272000    495.97025    74607.219    435.08081   -305.29189    662.71245    357.42056    897.07079   -305.29189            0   -7.0192879            0            0            0            0            0            0 
10273000    580.66932    68469.977    440.99055   -333.03215    671.71413    338.68198    918.51768   -333.03215            0   -7.6484551            0            0            0            0            0            0 
10274000    395.89785    79497.523    444.74559   -303.81849    677.43379     373.6153    832.61524   -303.81849            0   -6.5874951            0            0            0            0            0            0 
10275000    519.12899    75149.134    438.49015   -307.78779    667.90553    360.11774    929.06912   -307.78779            0   -6.9686704            0            0            0            0            0            0 
10276000    508.84941    76096.609    446.43194   -305.38815    680.00242    374.61427    939.33076   -305.38815            0   -6.8819039            0            0            0            0            0            0 
10277000    629.94841      72615.3     445.1068    -306.8637    677.98398    371.12029     1038.248    -306.8637            0   -7.2118348            0            0            0            0            0            0 
10278000    437.37204    79499.508     435.8562   -296.87025    663.89352    367.02326    874.12062   -296.87025            0   -6.5873307            0            0            0            0            0            0 
10279000     526.5766    73071.883    455.83248   -328.84543    694.32128    365.47584    926.63718   -328.84543            0   -7.1667723            0            0            0            0            0            0 
10280000    513.56736    75910.717    448.23038   -307.77461     682.7418    374.96719    943.52732   -307.77461            0   -6.8987564            0            0            0            0            0            0 
10281000    482.15555    70783.128    415.07604   -333.20554    632.24131    299.03578    796.76462   -333.20554            0   -7.3985081            0            0            0            0            0            0 
10282000    432.83799    74989.698     441.9279   -319.18927     673.1419    353.95263    827.32496   -319.18927            0   -6.9834865            0            0            0            0            0            0 
10283000    467.90771     73202.47    461.66799   -323.93548    703.20988     379.2744    878.80469   -323.93548            0   -7.1539873            0            0            0            0            0            0 
10284000     483.4267    75445.455    474.80351   -313.74355    723.21783    409.47428    941.38606   -313.74355            0   -6.9413001            0            0            0            0            0            0 
10285000     483.9395    76599.936    423.12222   -295.48321     644.4972    349.01399    889.63805   -295.48321            0   -6.8366838            0            0            0            0            0            0 
10286000     530.2913    75028.829    424.51557   -302.35743    646.61955    344.26212    924.51667   -302.35743            0   -6.9798443            0            0            0            0            0            0 
10287000    496.54904     73254.23     413.4707   -312.78219    629.79606    317.01388    847.49599   -312.78219            0   -7.1489325            0            0            0            0            0            0 
10288000    501.72301    74121.191    441.11545   -308.83059    671.90438    363.07379     905.4271   -308.83059            0   -7.0653148            0            0            0            0            0            0 
10289000    536.03594    70703.556    457.65263   -328.85124    697.09371    368.24247    920.96995   -328.85124            0   -7.4068346            0            0            0            0            0            0 
10290000    471.38357    76351.204    434.54439    -298.7664    661.89537    363.12898    888.01646    -298.7664            0   -6.8589559            0            0            0            0            0            0 
10291000     403.5209    76180.692     445.3509    -314.7365    678.35579    363.61929    811.93797    -314.7365            0   -6.8743081            0            0            0            0            0            0 
10292000    568.02824    68742.754    450.91182   -328.77601    686.82615    358.05014    927.52263   -328.77601            0   -7.6181053            0            0            0            0            0            0 
10293000    463.70988     70490.27    462.39202   -338.96467    704.31271    365.34804    842.05492   -338.96467            0   -7.4292458            0            0            0            0            0            0 
10294000    494.67501    69281.112    467.44152   -347.72166    712.00409    364.28242    864.09906   -347.72166            0    -7.558908            0            0            0            0            0            0 
10295000    489.72114    75358.439     423.3263    -307.8393    644.80805    336.96875    875.18479    -307.8393            0   -6.9493152            0            0            0            0            0            0 
10296000    466.52921    75831.533    428.75203   -304.53496    653.07249    348.53753    864.48391   -304.53496            0   -6.9059601            0            0            0            0            0            0 
10297000    488.01334    72150.238    450.81802   -330.57061    686.68328    356.11267    869.61847   -330.57061            0   -7.2583204            0            0            0            0            0            0 
10298000    586.79132    71628.426    452.62072   -313.92681    689.42914    375.50232    988.48045   -313.92681            0   -7.3111971            0            0            0            0            0            0 
10299000    431.04409    75937.601    449.51784   -311.19819    684.70284    373.50465    850.87392   -311.19819            0    -6.896314            0            0            0            0            0            0 
10300000    559.14577    70595.017    420.34292   -316.09158    640.26379    324.17221    899.84404   -316.09158            0   -7.4182225            0            0            0            0            0            0 
10301000    422.99766    74130.875    430.81927   -320.88238     656.2213    335.33891    792.65131   -320.88238            0   -7.0643918            0            0            0            0            0            0 
10302000    451.72258    72689.402    435.29786   -327.09361    663.04306    335.94944    814.82072   -327.09361            0   -7.2044828            0            0            0            0            0            0 
10303000    484.14656    74543.925    424.79277   -307.93377    647.04178    339.10801    865.44634   -307.93377            0   -7.0252478            0            0            0            0            0            0 
10304000    434.87287    72982.875    444.19742   -337.15218    676.59882    339.44664    802.31678   -337.15218            0   -7.1755127            0            0            0            0            0            0 
10305000    423.52304    76015.278    449.76331   -321.77678    685.07674    363.29997    832.81966   -321.77678            0    -6.889267            0            0            0            0            0            0 
10306000    465.41172    73161.843    435.63679   -326.01605    663.55932    337.54327    834.13313   -326.01605            0     -7.15796            0            0            0            0            0            0 
10307000    532.08788    72236.451    425.40415    -315.1028    647.97302    332.87022     893.4219    -315.1028            0   -7.2496578            0            0            0            0            0            0 
10308000    440.26885    78583.736    428.36725   -296.77907    652.48639    355.70732    860.28324   -296.77907            0   -6.6640958            0            0            0            0            0            0 
10309000    477.27739    72483.701    420.88568   -326.20443    641.09051    314.88608    819.41622   -326.20443            0   -7.2249283            0            0            0            0            0            0 
10310000    530.21838    72582.025    437.23457    -319.7807    665.99304    346.21234    907.46674    -319.7807            0    -7.215141            0            0            0            0            0            0 
10311000    496.86278    74516.762    461.66048    -317.1838    703.19844    386.01464    925.98053    -317.1838            0   -7.0278087            0            0            0            0            0            0 
10312000    467.41046    74779.446    424.71478   -315.65339    646.92298     331.2696    841.01881   -315.65339            0   -7.0031215            0            0            0            0            0            0 
10313000    536.71637    76343.991    443.50209   -300.20623     675.5397    375.33347    972.91284   -300.20623            0    -6.859604            0            0            0            0            0            0 
10314000    503.73757    71875.676    466.86703   -329.08279    711.12903    382.04624     910.0806   -329.08279            0   -7.2860469            0            0            0            0            0            0 
10315000    483.26974    72086.839    459.51923   -340.74566     699.9369    359.19124    867.25881   -340.74566            0    -7.264704            0            0            0            0            0            0 
10316000    482.75599     76443.08    421.79567    -295.5474     642.4766     346.9292    885.12677    -295.5474            0   -6.8507123            0            0            0            0            0            0 
10317000    568.61179    69729.344    469.60557   -336.49839    715.30036    378.80197    957.04091   -336.49839            0   -7.5103179            0            0            0            0            0            0 
10318000    472.84024    75883.797    429.65056   -303.35361    654.44113    351.08753    874.37383   -303.35361            0   -6.9012038            0            0            0            0            0            0 
10319000    537.59347    72950.303    441.80509   -315.90431    672.95483    357.05052    928.99909   -315.90431            0   -7.1787165            0            0            0            0            0            0 
10320000    466.96744    72713.075    440.31148   -322.22761    670.67978    348.45217    843.64574   -322.22761            0   -7.2021372            0            0            0            0            0            0 
10321000    437.62095    77166.286    440.36241   -307.80421    670.75735    362.95313    855.44787   -307.80421            0   -6.7865071            0            0            0            0            0            0 
10322000    603.52095    69575.878    432.00495   -320.05888    658.02732    337.96844    950.35681   -320.05888            0   -7.5268837            0            0            0            0            0            0 
10323000    446.19073    72993.222    437.14085   -322.32854    665.85029    343.52175    818.50574   -322.32854            0   -7.1744955            0            0            0            0            0            0 
10324000    561.88577     70498.48    448.16123   -328.90002    682.63647    353.73646     931.4382   -328.90002            0   -7.4283807            0            0            0            0            0            0 
10325000    426.89302    76884.964    451.50559   -307.19088    687.73058     380.5397    859.20987   -307.19088            0   -6.8113389            0            0            0            0            0            0 
10326000    403.01843    76943.661     419.5792    -307.1697    639.10049    331.93079    784.17566    -307.1697            0   -6.8061428            0            0            0            0            0            0 
10327000    460.77459    76787.829    406.94946   -298.38349    619.86295    321.47946    837.48789   -298.38349            0   -6.8199551            0            0            0            0            0            0 
10328000    513.28347    71047.566    432.63845   -331.10058    658.99226    327.89167    859.73335   -331.10058            0    -7.370971            0            0            0            0            0            0 
10329000    469.74305    76142.755    452.64778   -318.02588    689.47035    371.44447    893.07721   -318.02588            0   -6.8777331            0            0            0            0            0            0 
10330000    470.24167    75858.789    467.88133   -310.31289    712.67401    402.36112    922.60012   -310.31289            0   -6.9034788            0            0            0            0            0            0 
10331000    518.06592    74515.681    436.33962    -300.5463    664.62987    364.08357    927.08383    -300.5463            0   -7.0279106            0            0            0            0            0            0 
10332000    617.76487    68664.398    432.57888   -329.79989    658.90152    329.10162    947.73125   -329.79989            0   -7.6267988            0            0            0            0            0            0 
10333000    490.60901    74150.937    459.40463   -314.46579    699.76235    385.29656    915.84868   -314.46579            0   -7.0624805            0            0            0            0            0            0 
10334000    520.18536    70680.816    428.29699   -327.11311    652.37938    325.26627    861.47709   -327.11311            0   -7.4092176            0            0            0            0            0            0 
10335000    451.56402    73626.686    434.74879   -321.86537    662.20672    340.34134     825.2171   -321.86537            0   -7.1127681            0            0            0            0            0            0 
10336000    466.54131    78089.252    432.80166   -301.02617    659.24086    358.21469    889.53603   -301.02617            0   -6.7062948            0            0            0            0            0            0 
10337000    592.38551    72479.659    438.07288   -309.00921    667.26995    358.26075    984.43681   -309.00921            0   -7.2253312            0            0            0            0            0            0 
10338000    527.24939    72205.276    429.14967   -316.44108    653.67818     337.2371    892.45174   -316.44108            0   -7.2527878            0            0            0            0            0            0 
10339000     412.2641    78488.777    430.66688   -304.42145    655.98917    351.56772     823.4775   -304.42145            0   -6.6721583            0            0            0            0            0            0 
10340000    455.64739    75355.209    462.06414    -314.8461    703.81329     388.9672    889.71385    -314.8461            0    -6.949613            0            0            0            0            0            0 
10341000     586.2638    69605.081    451.62706    -330.1181    687.91561    357.79751    952.92486    -330.1181            0   -7.5237258            0            0            0            0            0            0 
10342000    393.08958    74603.138     416.5508   -319.40952    634.48765    315.07813    742.76362   -319.40952            0   -7.0196718            0            0            0            0            0            0 
10343000    466.76458    77125.884    470.07189   -307.72055    716.01065     408.2901    933.30779   -307.72055            0   -6.7900621            0            0            0            0            0            0 
10344000    545.93821    72271.757    445.07769   -314.71322    677.93963    363.22642    938.65044   -314.71322            0   -7.2461162            0            0            0            0            0            0 
10345000    478.77951    73490.743    443.76549   -321.49031     675.9409    354.45059    867.60029   -321.49031            0   -7.1259253            0            0            0            0            0            0 
10346000    506.06197    78082.165    429.91939   -303.05216    654.85061    351.79845    928.07565   -303.05216            0   -6.7069035            0            0            0            0            0            0 
10347000    547.28441    72467.708    479.51672   -319.22184    730.39696    411.17511    989.58205   -319.22184            0   -7.2265228            0            0            0            0            0            0 
10348000    476.63332    74713.536    455.25517   -313.86592    693.44191    379.57599    898.92532   -313.86592            0   -7.0092994            0            0            0            0            0            0 
10349000    465.27933    78540.895     432.0613   -287.78235    658.11316    370.33081    903.27961   -287.78235            0   -6.6677308            0            0            0            0            0            0 
10350000    381.48827    76718.099    432.16643   -319.14196    658.27328    339.13132     765.9613   -319.14196            0   -6.8261539            0            0            0            0            0            0 
10351000     409.8601     71115.75    430.43457   -341.80061    655.63533    313.83472    738.92123   -341.80061            0   -7.3639038            0            0            0            0            0            0 
10352000      515.231    72429.885    452.11652   -327.54009    688.66114    361.12106    905.36759   -327.54009            0   -7.2302965            0            0            0            0            0            0 
10353000    432.37405    75863.259    444.54705    -315.2097    677.13137    361.92167    840.29505    -315.2097            0   -6.9030721            0            0            0            0            0            0 
[...]
14939000    555.11922    68010.833    430.50037   -346.56328    655.73556    309.17228    859.77741   -346.56328            0   -7.7000901            0            0            0            0            0            0 
14940000    428.49235    77642.871    449.04879   -311.28034     683.9884    372.70806    857.90779   -311.28034            0   -6.7448503            0            0            0            0            0            0 
14941000    466.26205    77633.136    451.36138   -299.61294    687.51091    387.89798    915.79971   -299.61294            0   -6.7456962            0            0            0            0            0            0 
14942000    517.29318    72731.284    451.74679   -309.94053    688.09797    378.15744    926.85609   -309.94053            0   -7.2003341            0            0            0            0            0            0 
14943000    524.45652     74421.47     443.8091    -302.9665    676.00733    373.04083    942.26538    -302.9665            0   -7.0368073            0            0            0            0            0            0 
14944000    434.17902    79977.697    439.32549   -290.00632    669.17792    379.17161    885.59483   -290.00632            0   -6.5479448            0            0            0            0            0            0 
14945000    477.94432    75668.751    444.02237   -311.38998    676.33218    364.94221     892.3782   -311.38998            0   -6.9208166            0            0            0            0            0            0 
14946000    531.39118     70810.49    450.51322   -317.30865      686.219    368.91036    917.67715   -317.30865            0   -7.3956492            0            0            0            0            0            0 
14947000    463.95353    75930.496    460.44522   -312.58866    701.34737    388.75871    902.52619   -312.58866            0   -6.8969594            0            0            0            0            0            0 
14948000    460.32999     75600.87    426.40224    -319.1975    649.49331     330.2958    837.83776    -319.1975            0   -6.9270306            0            0            0            0            0            0 
14949000    461.98099    70622.668    445.23903   -334.98544     678.1854    343.19995    819.02152   -334.98544            0    -7.415318            0            0            0            0            0            0 
14950000     512.6157    70693.384     447.8748    -334.4182    682.20018    347.78198    876.28389    -334.4182            0   -7.4079004            0            0            0            0            0            0 
14951000    505.64881    73432.366    436.50177   -314.09763    664.87685    350.77923    892.29661   -314.09763            0   -7.1315902            0            0            0            0            0            0 
14952000    462.35221    77072.068     438.0561   -304.14151    667.24439    363.10288    882.79465   -304.14151            0   -6.7948033            0            0            0            0            0            0 
14953000    572.30673    71905.886    449.46238   -314.62747    684.61837     369.9909    970.15385   -314.62747            0   -7.2829857            0            0            0            0            0            0 
14954000    461.43693    71771.507    435.82935   -335.60539    663.85262    328.24723    811.23965   -335.60539            0   -7.2966218            0            0            0            0            0            0 
14955000    459.35968     76382.37    421.76264   -304.55827     642.4263    337.86804    849.57566   -304.55827            0   -6.8561574            0            0            0            0            0            0 
14956000     520.5137    73267.587    415.00595   -314.52023    632.13455    317.61432    873.80018   -314.52023            0   -7.1476292            0            0            0            0            0            0 
14957000    556.42626    76608.863    428.74087   -287.38811     653.0555    365.66739    987.34112   -287.38811            0   -6.8358872            0            0            0            0            0            0 
14958000    462.14503    78454.129     444.0614   -296.04493    676.39163    380.34669    909.12056   -296.04493            0    -6.675105            0            0            0            0            0            0 
14959000      664.201    71782.631    478.24361   -300.73947    728.45777     427.7183    1123.0544   -300.73947            0   -7.2954911            0            0            0            0            0            0 
14960000    573.53627    73330.729    469.05939   -316.25575    714.46841    398.21267     1011.583   -316.25575            0   -7.1414747            0            0            0            0            0            0 
14961000    489.99778    75895.891    439.44651   -296.78668    669.36227    372.57559    914.93635   -296.78668            0    -6.900104            0            0            0            0            0            0 
14962000    505.46983    74395.577      469.268   -319.25621    714.78618    395.52996    943.95623   -319.25621            0   -7.0392564            0            0            0            0            0            0 
14963000     516.5211    75601.843    402.36475    -296.4772    612.87955    316.40236    885.90578    -296.4772            0   -6.9269415            0            0            0            0            0            0 
14964000    603.72061    71446.419    430.07308     -311.955     655.0847    343.12971    972.19013     -311.955            0   -7.3298221            0            0            0            0            0            0 
14965000    534.92113    76527.934     452.9775   -293.17561    689.97258    396.79697     993.8125   -293.17561            0   -6.8431162            0            0            0            0            0            0 
14966000    586.72558    76656.009    452.88121   -285.94229    689.82591    403.88362     1059.813   -285.94229            0   -6.8316829            0            0            0            0            0            0 
14967000    521.72243    71255.782    448.63179   -330.61308    683.35323    352.74015    894.91018   -330.61308            0   -7.3494323            0            0            0            0            0            0 
14968000    545.17794    73251.216    455.33225   -315.33271    693.55932    378.22661    960.63685   -315.33271            0   -7.1492266            0            0            0            0            0            0 
14969000    494.40791    78081.145    445.12825   -300.50441    678.01664    377.51223    940.51103   -300.50441            0   -6.7069911            0            0            0            0            0            0 
14970000    484.23486     73523.29    443.92387   -311.29596    676.18215    364.88619    884.11272   -311.29596            0   -7.1227708            0            0            0            0            0            0 
14971000    471.30478     73442.66    461.66859   -319.29506    703.21079    383.91573    888.72362   -319.29506            0   -7.1305906            0            0            0            0            0            0 
14972000    443.62965    74136.309    436.55771   -316.36644    664.96206    348.59562     828.2489   -316.36644            0    -7.063874            0            0            0            0            0            0 
14973000    455.97209    75710.693    422.33376   -305.69726    643.29623    337.59897    841.06639   -305.69726            0   -6.9169826            0            0            0            0            0            0 
14974000    456.80696    73265.829     422.6481   -316.11167    643.77503    327.66336    815.76477   -316.11167            0   -7.1478007            0            0            0            0            0            0 
14975000    412.16147    72509.521    429.84737   -337.88315    654.74091    316.85776    752.70903   -337.88315            0   -7.2223556            0            0            0            0            0            0 
14976000    426.24443    78972.212    456.33232   -305.64369    695.08263    389.43894    880.35688   -305.64369            0   -6.6313141            0            0            0            0            0            0 
14977000    536.52232    74624.122    437.50191   -313.07195    666.40025    353.32831    937.23428   -313.07195            0   -7.0176979            0            0            0            0            0            0 
14978000    440.73605    74292.352    425.65586   -321.05763    648.35642    327.29879     804.8265   -321.05763            0   -7.0490371            0            0            0            0            0            0 
14979000    507.28875    73869.605    427.03529   -305.84895    650.45756    344.60861    891.11708   -305.84895            0   -7.0893779            0            0            0            0            0            0 
14980000    437.93188    72474.047    451.31799   -333.62329    687.44483    353.82154    816.69786   -333.62329            0   -7.2258908            0            0            0            0            0            0 
14981000     426.2339    76122.755    419.93321   -309.71462    639.63971    329.92509    803.11817   -309.71462            0   -6.8795401            0            0            0            0            0            0 
14982000    468.31071    75485.386    437.94903   -312.81866    667.08131    354.26264     869.8151   -312.81866            0   -6.9376283            0            0            0            0            0            0 
14983000    447.94674    75396.913    431.77042   -315.67724    657.67008    341.99284    834.54909   -315.67724            0    -6.945769            0            0            0            0            0            0 
14984000    506.55039     72240.59    439.82823   -322.11135     669.9437    347.83235      881.511   -322.11135            0   -7.2492423            0            0            0            0            0            0 
14985000    504.00488    75283.073    442.02618   -300.04292    673.29159    373.24868    926.60894   -300.04292            0   -6.9562722            0            0            0            0            0            0 
14986000    484.66251    73514.562    449.40452   -323.46703    684.53024    361.06321    880.68659   -323.46703            0   -7.1236165            0            0            0            0            0            0 
14987000    463.87475    69921.478    443.52456   -345.00435    675.57392    330.56957    803.59798   -345.00435            0   -7.4896808            0            0            0            0            0            0 
14988000     466.0815    72650.564    438.10157   -320.82786    667.31365    346.48579    840.31496   -320.82786            0   -7.2083342            0            0            0            0            0            0 
14989000    448.93397    80104.963     449.8175   -294.85407    685.15929    390.30522    914.77176   -294.85407            0   -6.5375418            0            0            0            0            0            0 
14990000    471.36696    73370.418    420.65118    -320.6757    640.73332    320.05761    824.43548    -320.6757            0   -7.1376116            0            0            0            0            0            0 
14991000    624.38154    71005.883    459.85717   -313.81563    700.45166    386.63602    1033.2131   -313.81563            0    -7.375298            0            0            0            0            0            0 
14992000    500.35599    77155.273    459.34227   -302.42724    699.66737    397.24013    960.25595   -302.42724            0   -6.7874758            0            0            0            0            0            0 
14993000      555.397    74625.021     490.1747   -309.38467    746.63114    437.24646    1041.7013   -309.38467            0   -7.0176134            0            0            0            0            0            0 
14994000    512.54282    70982.923    452.08593   -337.33046    688.61454    351.28409    881.87514   -337.33046            0   -7.3776836            0            0            0            0            0            0 
14995000    481.53101    75459.138    421.16938   -299.11063    641.52264    342.41201    872.33406   -299.11063            0   -6.9400415            0            0            0            0            0            0 
14996000     502.2453    75928.772    410.19297    -305.6873    624.80344    319.11614    875.27409    -305.6873            0   -6.8971159            0            0            0            0            0            0 
14997000    578.58904    70548.238    466.83803   -323.20496    711.08486     387.8799    983.17494   -323.20496            0   -7.4231414            0            0            0            0            0            0 
14998000     482.9098    77471.932    453.09246   -296.75926    690.14769    393.38843    939.00341   -296.75926            0   -6.7597326            0            0            0            0            0            0 
14999000    495.46356    73380.135    468.52139   -320.41717    713.64894    393.23176    923.46399   -320.41717            0   -7.1366664            0            0            0            0            0            0 
15000000    577.57029     70751.84    432.03346   -313.59499    658.07075    344.47576    940.43763   -313.59499            0   -7.4017798            0            0            0            0            0            0 
Loop time of 1247.8 on 8 procs for 5000000 steps with 512 atoms

Pair  time (%) = 636.38 (51.0001)
Bond  time (%) = 0.456583 (0.036591)
Neigh time (%) = 29.9063 (2.39672)
Comm  time (%) = 419.733 (33.6378)
Outpt time (%) = 0.27977 (0.022421)
Other time (%) = 161.046 (12.9063)

Nlocal:    64 ave 71 max 57 min
Histogram: 1 0 1 1 1 1 1 1 0 1
Nghost:    1101.62 ave 1115 max 1083 min
Histogram: 1 0 0 0 2 1 0 3 0 1
Neighs:    4678.88 ave 5312 max 3786 min
Histogram: 1 0 0 1 0 3 0 0 2 1

Total # of neighbors = 37431
Ave neighs/atom = 73.1074
Ave special neighs/atom = 0
Neighbor list builds = 97522
Dangerous builds = 0

Averages
Group Pressure(MPa) Volume(m3) Temperature(K) PE(J) KE(J) ET(J) ET^2(J) H(J) H^2(J^2) V^2(m6) V*H(m3*J) Hconf(J) Uext*Hconf(J^2) V*Hconf(m3*J) Uext(J)
Block1 49.97488998526546311 7.40565155183000404e-26 440.73364074514313415 -2.1889897375693791292e-18 4.6641460182649783785e-18 2.4751562806955900048e-18 6.1633137955508271938e-36 6.1701157553787105951e-18 3.8297562116937826383e-35 5.490384958170380402e-51 4.5696337046243142575e-43 1.5059697371137364536e-18 -3.2770448530985598962e-36 1.1155802860832906849e-43 -2.1889897375693791292e-18
Block2 50.018075259031355984 7.4103980876569802996e-26 440.68416135079422702 -2.1846971257889930948e-18 4.6636223933387134344e-18 2.4789252675497226507e-18 6.1791351026350606882e-36 6.179431787797039156e-18 3.8400088950272808996e-35 5.497307879602317118e-51 4.5791837133799389893e-43 1.5158093944583157068e-18 -3.2917648636825470123e-36 1.1234765382732984706e-43 -2.1846971257889930948e-18
Block3 49.983494370221542624 7.3927726212744259779e-26 440.03045425113640476 -2.1917950474858938531e-18 4.6567044159389620593e-18 2.4649093684530724433e-18 6.1117023550222116595e-36 6.1541420474838888349e-18 3.8092059457517236596e-35 5.4713795508043987967e-51 4.5499310145824654537e-43 1.497437631544931783e-18 -3.2629227688620249875e-36 1.1074630321826137089e-43 -2.1917950474858938531e-18
Block4 49.980978720468364429 7.4100850152344168051e-26 440.40878580906638717 -2.1834404803185491722e-18 4.6607081802681846001e-18 2.4772676999496408206e-18 6.174998264643101462e-36 6.1752624769708155646e-18 3.8368654437341453841e-35 5.4969258153188120409e-51 4.5766916660940068977e-43 1.5145542967026332756e-18 -3.2835967292423090777e-36 1.1228790583240964101e-43 -2.1834404803185491722e-18
Block5 49.839028536136304126 7.4068018757048418306e-26 439.85092942924859472 -2.1865384286755260166e-18 4.6548045610021517601e-18 2.4682661323266295954e-18 6.1275144351585842691e-36 6.1533698452473188308e-18 3.8080557878160700545e-35 5.491951659580573069e-51 4.5574401774283757966e-43 1.498565284245163604e-18 -3.2581995832375006133e-36 1.10979297549990452e-43 -2.1865384286755260166e-18
Ave_blocks 49.95929337422460037 7.4051418303401342498e-26 440.34159431707774957 -2.1870921639676682532e-18 4.6599971137625977383e-18 2.4729049497949310259e-18 6.1513327906019575891e-36 6.1664643825755550585e-18 3.8247784568046013825e-35 5.4895899726952958105e-51 4.5665760552218201196e-43 1.5064672688129561646e-18 -3.2747057596245885847e-36 1.1158383780726407589e-43 -2.1870921639676682532e-18
Stdev_blocks 0.061996996680088796439 6.4509877910484806209e-29 0.35017922374868948321 3.0031824148468603788e-21 3.7058369979812588268e-21 5.3998935934671371456e-21 2.6886625581616543217e-38 1.0790731545781240884e-20 1.3601399220805033832e-37 9.4995758464953779018e-54 1.1235207949660520886e-45 7.7058234959743913791e-21 1.2544532358886698748e-38 6.5524436994628910851e-46 3.0031824148468603788e-21






Properties
Group rho(kg/m3) Cp(J/K) Cp_conf(J/K) Cp_id(J/K) Cp2(J/K) kT(1/Pa) aP(1/K) aP2(1/K) Cv(J/K) uJT(K/Pa) sos(m/s) Cv2(J/K) uJT2(K/Pa) sos2(m/s) CvNVT(J/K)
Block1 184.17331769829053201 8.4729976149264741305e-20 7.8553646182374451297e-22 3.6521483783770205409e-20 3.7307020245593951426e-20 1.3353375315127584309e-08 0.00013140027019242623532 0.00015687810600497939626 8.4687773381326900531e-20 -8.2341243668068354623e-07 637.82171540981926228 3.7246865056792079075e-20 -1.8478061112081237789e-06 638.17756863669649192 1.3764783608782283327e-20
Block2 184.05535031779527344 8.0078820615958608828e-20 6.9874697649051125124e-22 3.651900308200814174e-20 3.7217750058498649982e-20 1.310330279211064961e-08 -1.0688385034016805711e-05 0.00010138043878164301325 8.0078535899623713608e-20 -9.2974677976573412902e-07 643.92629549198034056 3.7192134930109147262e-20 -1.9021368961797384603e-06 644.14685606039267896 1.2704730358508500628e-20
Block3 184.49416557098186331 8.1769579965275443032e-20 9.2121660633419510797e-22 3.6486238369036616899e-20 3.7407454975370812006e-20 1.3516867071298219289e-08 0.00015874547740030967198 0.00022336513070234887356 8.1708931926218892473e-20 -8.4094432521597140893e-07 633.47835009050345434 3.7287382132161011178e-20 -1.7820393776860385112e-06 634.26214864552628114 1.3438102107248683364e-20
Block4 184.06312656520555038 8.7675917084444834469e-20 2.7329822247078890867e-21 3.650519869819240912e-20 3.9238180922900301216e-20 1.3293873239712189208e-08 0.00038787077494210106098 0.00029301702674983413563 8.7306598002574233639e-20 -7.0079469049417335154e-07 640.63027924326320317 3.9027408714481250014e-20 -1.6447841361980864467e-06 641.00351391052549843 1.4243599846797566427e-20
Block5 184.14471439986138535 8.1088458220330345987e-20 -4.6105220350297001323e-22 3.6477243472018478364e-20 3.6016191268515508351e-20 1.3073047673119486497e-08 -0.00012077828446769981775 -8.3216841794374329933e-05 8.1052105483691299982e-20 -9.6194751432684930452e-07 644.65791581354574191 3.599893361059374438e-20 -2.1317948436273046582e-06 644.66786572267187694 1.3169257252070685547e-20
Ave_blocks 184.18613491042691521 8.3068550407054801946e-20 9.3548601317067406437e-22 3.6501833481005175121e-20 3.74373194941758458e-20 1.3268093218273627437e-08 0.00010930997060662407845 0.00013828477208888622588 8.2966788938687005639e-20 -8.5136914929668219982e-07 640.10291120982242319 3.7350544888827446382e-20 -1.861712272979858244e-06 640.45159059516265643 1.346409463468154416e-20
Stdev_blocks 0.16062284403427729007 2.7761389265349707679e-21 1.0256749462212191478e-21 1.7550671459254084867e-23 1.0323553496721998769e-21 1.6433181355862502309e-10 0.00017196987111664169072 0.00012802448585338065904 2.6602989597830593538e-21 9.1578982470612633664e-08 4.1166276405143245043 9.6732187958885428267e-22 1.6011103224682419028e-07 3.8785809175759240475 5.2197337718638107755e-22






