LAMMPS (28 Oct 2012)
Scanning data file ...
Reading data file ...
  orthogonal box = (0 0 0) to (100 100 100)
  2 by 2 by 2 MPI processor grid
  512 atoms
Finding 1-2 1-3 1-4 neighbors ...
  0 = max # of 1-2 neighbors
  0 = max # of 1-3 neighbors
  0 = max # of 1-4 neighbors
  1 = max # of special neighbors
WARNING: Resetting reneighboring criteria during minimization (min.cpp:173)
Setting up minimization ...
Memory usage per processor = 4.05499 Mbytes
Step Temp E_pair E_mol TotEng Press 
       0       600.15    1409.7233            0    2323.8682    454.30411 
     701       600.15   -217.27527            0    696.86958    41.559208 
Loop time of 0.0529419 on 8 procs for 701 steps with 512 atoms

Minimization stats:
  Stopping criterion = energy tolerance
  Energy initial, next-to-last, final = 
         1409.72334813     -217.256630745     -217.275265106
  Force two-norm initial, final = 5034.49 0.337455
  Force max component initial, final = 2457.89 0.147661
  Final line search alpha, max atom move = 0.254892 0.0376377
  Iterations, force evaluations = 701 710

Pair  time (%) = 0.00892723 (16.8623)
Bond  time (%) = 6.13332e-05 (0.11585)
Neigh time (%) = 0.00314578 (5.94195)
Comm  time (%) = 0.0209509 (39.5734)
Outpt time (%) = 0 (0)
Other time (%) = 0.0198567 (37.5065)

Nlocal:    64 ave 74 max 52 min
Histogram: 1 0 0 1 1 2 0 2 0 1
Nghost:    235.125 ave 266 max 224 min
Histogram: 4 0 2 0 0 1 0 0 0 1
Neighs:    316.25 ave 371 max 226 min
Histogram: 1 0 0 1 1 1 0 1 0 3

Total # of neighbors = 2530
Ave neighs/atom = 4.94141
Ave special neighs/atom = 0
Neighbor list builds = 60
Dangerous builds = 0
Setting up run ...
Memory usage per processor = 3.36354 Mbytes
Step Temp E_pair E_mol TotEng Press Volume 
     701       600.15   -217.27527            0    696.86958    41.559208      1000000 
 5000701    616.04306   -217.61844            0    720.73461    426.18825    105998.12 
Loop time of 998.306 on 8 procs for 5000000 steps with 512 atoms

Pair  time (%) = 472.666 (47.3468)
Bond  time (%) = 0.436518 (0.0437259)
Neigh time (%) = 26.631 (2.66762)
Comm  time (%) = 346.231 (34.6819)
Outpt time (%) = 4.44353e-05 (4.45107e-06)
Other time (%) = 152.341 (15.26)

Nlocal:    64 ave 77 max 51 min
Histogram: 1 0 1 1 1 2 0 0 1 1
Nghost:    857.875 ave 885 max 830 min
Histogram: 2 0 0 0 1 1 2 1 0 1
Neighs:    3124.25 ave 4017 max 2434 min
Histogram: 1 1 1 1 1 0 2 0 0 1

Total # of neighbors = 24994
Ave neighs/atom = 48.8164
Ave special neighs/atom = 0
Neighbor list builds = 113920
Dangerous builds = 0
Setting up run ...
Memory usage per processor = 3.93544 Mbytes
Step Press Volume Temp PotEng KinEng TotEng Enthalpy E_vdwl E_coul E_tail E_long E_bond E_angle E_dihed E_impro E_mol 
10000000    426.18825    105998.12    616.04306   -217.61844    938.35305    720.73461    1379.5679   -217.61844            0   -4.9405552            0            0            0            0            0            0 
10001000    518.77215    99470.914    590.78278   -202.64858    899.87675    697.22816    1449.8012   -202.64858            0   -5.2647505            0            0            0            0            0            0 
10002000    484.35808    100388.23    571.04045   -213.14858    869.80535    656.65677    1365.7858   -213.14858            0   -5.2166427            0            0            0            0            0            0 
10003000     399.1442    110801.58    583.40058   -200.60985    888.63223    688.02237    1333.0104   -200.60985            0   -4.7263727            0            0            0            0            0            0 
10004000    437.51191    100971.81    594.01703   -224.37393    904.80314    680.42921    1324.6963   -224.37393            0   -5.1864925            0            0            0            0            0            0 
10005000    507.90203    98770.335    596.32041   -217.01451    908.31163    691.29712    1422.9117   -217.01451            0   -5.3020934            0            0            0            0            0            0 
10006000    499.41084    101291.49    623.91107   -211.56231    950.33756    738.77525    1476.5212   -211.56231            0   -5.1701236            0            0            0            0            0            0 
10007000    489.94332    104740.37    582.48834   -197.59165    887.24271    689.65106    1438.0546   -197.59165            0   -4.9998824            0            0            0            0            0            0 
10008000    422.45331    105345.22    586.06151   -216.06799    892.68534    676.61734    1325.6543   -216.06799            0   -4.9711754            0            0            0            0            0            0 
10009000    660.49094    94961.251    613.45593   -201.31525    934.41235     733.0971    1647.8192   -201.31525            0   -5.5147709            0            0            0            0            0            0 
10010000    471.54316    104383.67    613.95605   -208.49806    935.17414    726.67607    1444.5198   -208.49806            0   -5.0169683            0            0            0            0            0            0 
10011000    395.96345    106440.56    581.76563   -213.85527    886.14188     672.2866    1286.9511   -213.85527            0   -4.9200188            0            0            0            0            0            0 
10012000    467.24511    103978.82    580.67685   -205.28709    884.48345    679.19636    1387.7383   -205.28709            0   -5.0365019            0            0            0            0            0            0 
10013000    546.26654    101970.12    585.86032   -198.96969    892.37888    693.40919    1505.7783   -198.96969            0   -5.1357158            0            0            0            0            0            0 
10014000    527.37494    102192.14    608.63889   -200.39729    927.07507    726.67778    1512.6603   -200.39729            0   -5.1245578            0            0            0            0            0            0 
10015000    482.17526     101859.6    615.42867    -224.7816    937.41722    712.63562    1428.9155    -224.7816            0   -5.1412882            0            0            0            0            0            0 
10016000    449.25665    101858.98     550.7809    -215.5231    838.94612    623.42302    1290.7977    -215.5231            0   -5.1413194            0            0            0            0            0            0 
10017000    515.79775    95217.269    615.95797   -235.79213    938.22345    702.43132    1418.6919   -235.79213            0   -5.4999429            0            0            0            0            0            0 
10018000     474.3485    104602.51    621.38504   -204.86334    946.48992    741.62658    1465.2548   -204.86334            0   -5.0064721            0            0            0            0            0            0 
10019000    562.04848    102771.34    623.63275    -188.3616    949.91363    761.55202    1603.9585    -188.3616            0    -5.095677            0            0            0            0            0            0 
10020000    553.00108    98753.486    605.98245   -202.79334    923.02879    720.23544    1516.6777   -202.79334            0    -5.302998            0            0            0            0            0            0 
10021000    513.82197    103192.89    627.31576   -205.41249    955.52357    750.11107    1523.3939   -205.41249            0   -5.0748606            0            0            0            0            0            0 
10022000    518.77197    98458.248    624.44058     -217.896     951.1441     733.2481    1478.1593     -217.896            0   -5.3188997            0            0            0            0            0            0 
10023000    415.92613       101099    569.63633   -227.55821     867.6666    640.10839    1253.3604   -227.55821            0   -5.1799676            0            0            0            0            0            0 
10024000    497.73666    109722.29    641.32118   -189.71525    976.85653    787.14128     1583.613   -189.71525            0   -4.7728639            0            0            0            0            0            0 
10025000    493.97682    99189.157    575.88415   -214.12505    877.18324    663.05819    1377.6313   -214.12505            0   -5.2797056            0            0            0            0            0            0 
10026000    404.62231    101215.85    580.58246   -231.80832    884.33968    652.53136    1249.8062   -231.80832            0   -5.1739875            0            0            0            0            0            0 
10027000    494.26857     100777.7    584.95141   -211.56031    890.99444    679.43413    1405.8801   -211.56031            0   -5.1964824            0            0            0            0            0            0 
10028000    502.77948    103614.83    598.43195   -204.29682    911.52791    707.23109    1466.9892   -204.29682            0   -5.0541948            0            0            0            0            0            0 
10029000    579.17639    101529.58    581.49254   -185.45881    885.72591     700.2671    1557.8563   -185.45881            0   -5.1579998            0            0            0            0            0            0 
10030000    516.40153    99300.229    602.55907   -207.75998    917.81433    710.05435    1457.9029   -207.75998            0      -5.2738            0            0            0            0            0            0 
10031000    547.96015    101790.19    617.73543   -201.53859    940.93086    739.39226    1552.8421   -201.53859            0   -5.1447937            0            0            0            0            0            0 
10032000     471.8375    103642.26    602.87761    -214.5509    918.29952    703.74862    1416.9386    -214.5509            0   -5.0528572            0            0            0            0            0            0 
10033000    532.85962    99526.056    581.36459   -211.92934    885.53102    673.60168    1447.0397   -211.92934            0   -5.2618336            0            0            0            0            0            0 
10034000    379.32068    108574.09     549.9777   -205.72339    837.72269    631.99931    1232.6315   -205.72339            0   -4.8233381            0            0            0            0            0            0 
10035000    446.25407    97255.907     603.6388   -239.89176    919.45896     679.5672     1312.524   -239.89176            0   -5.3846554            0            0            0            0            0            0 
10036000    504.39285    96900.004    620.22444   -233.90668     944.7221    710.81542    1423.6169   -233.90668            0   -5.4044326            0            0            0            0            0            0 
10037000    548.18238    101389.33    622.02741   -213.46954    947.46838    733.99884    1544.5738   -213.46954            0   -5.1651349            0            0            0            0            0            0 
10038000    412.23933    101899.49    582.90046   -224.91887    887.87045    662.95158    1275.5803   -224.91887            0   -5.1392753            0            0            0            0            0            0 
10039000      461.621    106019.23    550.36511   -198.91242     838.3128    639.40038    1353.1503   -198.91242            0   -4.9395715            0            0            0            0            0            0 
10040000    484.36696    106506.96    604.50986   -208.46657    920.78576    712.31919    1464.6839   -208.46657            0   -4.9169513            0            0            0            0            0            0 
10041000    499.49991    97230.867    589.71633   -230.53971    898.25234    667.71263    1376.0097   -230.53971            0   -5.3860421            0            0            0            0            0            0 
10042000    534.36635    100941.14    588.51645   -195.80313    896.42469    700.62156    1487.2746   -195.80313            0   -5.1880682            0            0            0            0            0            0 
10043000    543.17206    103317.83    604.71773   -188.98024    921.10238    732.12214    1550.5654   -188.98024            0   -5.0687241            0            0            0            0            0            0 
10044000    543.37364    101506.82     604.9968   -207.19204    921.52746    714.33542     1518.731   -207.19204            0   -5.1591564            0            0            0            0            0            0 
10045000    538.97255    102615.59     626.7074   -197.72181    954.59692    756.87511    1563.4708   -197.72181            0   -5.1034112            0            0            0            0            0            0 
10046000    565.48384     99391.09    586.04649   -204.41531    892.66245    688.24714    1507.9256   -204.41531            0   -5.2689788            0            0            0            0            0            0 
10047000    421.83354    107605.43    568.58285   -204.50959    866.06195    661.55236     1323.542   -204.50959            0   -4.8667576            0            0            0            0            0            0 
10048000    560.30049    100536.44    609.39071   -197.61166    928.22023    730.60856    1552.1328   -197.61166            0   -5.2089524            0            0            0            0            0            0 
10049000    534.30064    96169.817    622.66259    -229.6396    948.43587    718.79628    1468.1733    -229.6396            0   -5.4454668            0            0            0            0            0            0 
10050000    519.51009    101583.22    596.61313   -200.79707     908.7575    707.96043    1477.6079   -200.79707            0   -5.1552762            0            0            0            0            0            0 
10051000    518.97211    101524.16    596.28402   -216.19712     908.2562    692.05908    1460.4626   -216.19712            0   -5.1582748            0            0            0            0            0            0 
10052000    531.18927    101872.41     604.8862   -204.14345    921.35899    717.21554    1506.4059   -204.14345            0   -5.1406418            0            0            0            0            0            0 
10053000    528.97952    104886.58    597.40021   -186.39827    909.95638    723.55811    1532.7186   -186.39827            0   -4.9929126            0            0            0            0            0            0 
10054000    484.13574    100375.65    594.06158   -218.73588      904.871    686.13512    1394.8498   -218.73588            0   -5.2172967            0            0            0            0            0            0 
10055000    439.65108     102453.4    583.57105   -217.35346    888.89188    671.53842    1328.4553   -217.35346            0   -5.1114902            0            0            0            0            0            0 
10056000    457.33599    102340.07     604.4713   -215.64422    920.72702     705.0828    1387.6681   -215.64422            0   -5.1171507            0            0            0            0            0            0 
10057000     483.0707    93728.359     591.6932   -235.03349    901.26349       666.23    1326.5548   -235.03349            0   -5.5873116            0            0            0            0            0            0 
10058000    444.22141    103213.93    605.99565   -212.69435     923.0489    710.35455    1379.0274   -212.69435            0   -5.0738261            0            0            0            0            0            0 
10059000     476.1073    104816.08    599.56062   -204.09069     913.2471     709.1564    1436.9507   -204.09069            0   -4.9962708            0            0            0            0            0            0 
10060000    526.89631    100087.98    601.76899   -204.65411    916.61087    711.95676     1481.057   -204.65411            0   -5.2322923            0            0            0            0            0            0 
10061000    468.85302    103071.92    589.11844   -214.26646    897.34164    683.07518    1387.8542   -214.26646            0   -5.0808168            0            0            0            0            0            0 
10062000    439.58323    105431.53    571.55574    -206.8493    870.59023    663.74093    1339.6488    -206.8493            0   -4.9671058            0            0            0            0            0            0 
10063000    469.67873    101741.01    561.07775   -200.87339    854.63023    653.75685    1350.6606   -200.87339            0    -5.147281            0            0            0            0            0            0 
10064000    591.96005    99414.248    610.65982   -193.61018    930.15333    736.54315    1594.7993   -193.61018            0   -5.2677514            0            0            0            0            0            0 
10065000    494.42421    101160.36    607.77922   -210.15707    925.76562    715.60855    1445.0425   -210.15707            0   -5.1768257            0            0            0            0            0            0 
10066000    412.33013    104161.42    566.11296   -216.04561    862.29982    646.25421    1272.6197   -216.04561            0   -5.0276731            0            0            0            0            0            0 
10067000    481.19086    98188.373    571.66611    -213.4377    870.75836    657.32066    1346.3748    -213.4377            0   -5.3335189            0            0            0            0            0            0 
10068000    492.99629    105466.41    582.57601   -194.13478    887.37624    693.24147    1451.5286   -194.13478            0   -4.9654628            0            0            0            0            0            0 
10069000    399.61897       112010    602.92095   -200.99733    918.36554    717.36821    1370.1661   -200.99733            0   -4.6753822            0            0            0            0            0            0 
10070000    487.45963    96055.756      609.372   -236.89543    928.19173     691.2963    1374.1662   -236.89543            0    -5.451933            0            0            0            0            0            0 
10071000    515.91408    99117.537    602.99349   -216.46023    918.47603     702.0158    1447.7838   -216.46023            0   -5.2835205            0            0            0            0            0            0 
10072000    499.80736    105238.29    601.00869   -203.81339    915.45279     711.6394      1478.74   -203.81339            0   -4.9762264            0            0            0            0            0            0 
10073000     518.6344       100467    600.58722   -205.44981    914.81081      709.361    1469.2684   -205.44981            0   -5.2125527            0            0            0            0            0            0 
10074000    533.75204    99172.744    574.85963   -212.48248     875.6227    663.14022    1435.1233   -212.48248            0   -5.2805794            0            0            0            0            0            0 
10075000    461.92359    100434.38    577.83793   -224.33917    880.15923    655.82005    1332.4145   -224.33917            0   -5.2142457            0            0            0            0            0            0 
10076000    470.78903    102929.44    597.53893   -216.61385    910.16768    693.55383    1400.2648   -216.61385            0   -5.0878499            0            0            0            0            0            0 
10077000    543.69418    103865.16     572.5154   -184.58591    872.05198    687.46608     1511.036   -184.58591            0   -5.0420136            0            0            0            0            0            0 
10078000    525.68776    100000.29    607.84011   -210.20256    925.85836     715.6558    1482.3197   -210.20256            0   -5.2368804            0            0            0            0            0            0 
10079000    477.85089    101200.65    607.16419   -218.87101    924.82881     705.9578    1411.2216   -218.87101            0   -5.1747648            0            0            0            0            0            0 
10080000    562.05864     96633.26    601.32395   -216.15103    915.93299    699.78196    1491.8895   -216.15103            0   -5.4193509            0            0            0            0            0            0 
10081000    431.47607    108801.82    586.01519    -200.8381    892.61478    691.77668    1376.4269    -200.8381            0   -4.8132427            0            0            0            0            0            0 
10082000    546.53637     102858.7    623.88275   -201.01923    950.29441    749.27518    1569.1282   -201.01923            0   -5.0913491            0            0            0            0            0            0 
10083000    496.81376    100720.74    607.28601    -218.7649    925.01437    706.24947    1436.0235    -218.7649            0   -5.1994214            0            0            0            0            0            0 
10084000    427.30252    104082.77    558.83373   -210.06622    851.21214    641.14592    1289.7657   -210.06622            0   -5.0314721            0            0            0            0            0            0 
10085000    417.32298    101402.69    591.36057   -229.58045    900.75684    671.17639    1288.3362   -229.58045            0   -5.1644544            0            0            0            0            0            0 
10086000    448.30493    99637.638    558.99193   -224.61265    851.45312    626.84047    1278.2781   -224.61265            0    -5.255941            0            0            0            0            0            0 
10087000    498.35047    99333.438    615.32439   -225.16037    937.25838    712.09801    1434.0465   -225.16037            0   -5.2720368            0            0            0            0            0            0 
10088000    500.96454    102316.53    615.27689   -206.08754    937.18602    731.09848    1478.6286   -206.08754            0   -5.1183276            0            0            0            0            0            0 
10089000    543.96294    102114.26    612.27612   -196.96647    932.61528    735.64881    1545.7357   -196.96647            0   -5.1284663            0            0            0            0            0            0 
10090000    470.05418    99566.594    616.48693   -213.15032    939.02915    725.87883    1408.4335   -213.15032            0   -5.2596912            0            0            0            0            0            0 
10091000    455.85592    108007.03    588.18428    -196.3308    895.91873    699.58793    1417.6393    -196.3308            0   -4.8486618            0            0            0            0            0            0 
10092000    472.21197    106506.09    612.24317   -205.10065    932.56508    727.46443    1460.9429   -205.10065            0   -4.9169913            0            0            0            0            0            0 
10093000    423.55387    96758.484    564.06222   -237.80519    859.17616    621.37097    1219.0577   -237.80519            0   -5.4123372            0            0            0            0            0            0 
10094000    514.30697    102600.16    590.35985   -207.22493    899.23254    692.00761    1461.5744   -207.22493            0   -5.1041786            0            0            0            0            0            0 
10095000    460.51848     104002.5     615.0377   -212.17982    936.82169    724.64187    1423.1424   -212.17982            0   -5.0353554            0            0            0            0            0            0 
10096000    498.83685    94397.981    632.70907   -235.69783    963.73862    728.04078    1414.7883   -235.69783            0   -5.5476774            0            0            0            0            0            0 
10097000    526.10255    101227.19    614.45815   -206.22129    935.93892    729.71764       1506.4   -206.22129            0   -5.1734081            0            0            0            0            0            0 
10098000      493.247    105036.51    609.52336    -197.8563    928.42228    730.56598    1486.1463    -197.8563            0   -4.9857859            0            0            0            0            0            0 
10099000    555.43665    97194.014    595.52446   -210.82024    907.09924      696.279    1483.5966   -210.82024            0   -5.3880844            0            0            0            0            0            0 
10100000     467.1661    105006.59    601.38531    -204.5231    916.02646    711.50336    1426.9278    -204.5231            0   -4.9872063            0            0            0            0            0            0 
10101000    479.01966    104829.25    629.64905   -203.79216    959.07761    755.28546    1487.6237   -203.79216            0   -4.9956434            0            0            0            0            0            0 
10102000     472.4152    97425.875    588.71006   -229.22339    896.71959     667.4962    1338.7304   -229.22339            0   -5.3752614            0            0            0            0            0            0 
10103000    472.53766    104553.12    593.75644   -204.64613    904.40621    699.76007    1420.2855   -204.64613            0   -5.0088373            0            0            0            0            0            0 
10104000    496.98622    99434.859    616.37351   -219.24459    938.85639     719.6118    1440.3191   -219.24459            0   -5.2666595            0            0            0            0            0            0 
10105000    583.96459    94818.125    643.91342   -228.23954    980.80501    752.56548    1560.0864   -228.23954            0   -5.5230953            0            0            0            0            0            0 
10106000     452.4228    103649.73    609.33467   -209.80191    928.13487    718.33296    1402.2266   -209.80191            0   -5.0524932            0            0            0            0            0            0 
10107000    475.78937    97534.061    583.67932   -226.99906     889.0568    662.05774    1338.8368   -226.99906            0   -5.3692991            0            0            0            0            0            0 
10108000    422.77421    103332.57    575.63783   -216.37323    876.80806    660.43483    1297.5554   -216.37323            0   -5.0680007            0            0            0            0            0            0 
10109000    443.52262    101663.06    581.96487   -215.53886    886.44537     670.9065     1328.496   -215.53886            0   -5.1512273            0            0            0            0            0            0 
10110000    557.43921    97797.945    562.95027   -212.25081    857.48243    645.23162    1440.2975   -212.25081            0   -5.3548114            0            0            0            0            0            0 
10111000    529.57096    101500.96    642.10827   -213.36647    978.05542    764.68894    1548.6062   -213.36647            0   -5.1594541            0            0            0            0            0            0 
10112000    489.74217    104302.12    621.10594   -209.80597     946.0648    736.25884     1481.225   -209.80597            0   -5.0208907            0            0            0            0            0            0 
10113000    489.72879    102504.68    640.64302   -228.25572    975.82357    747.56785    1479.6759   -228.25572            0   -5.1089331            0            0            0            0            0            0 
10114000     448.1735    109586.59    589.05801   -203.51266    897.24959    693.73694    1410.0114   -203.51266            0   -4.7787741            0            0            0            0            0            0 
10115000    518.49567    98736.294    603.37994   -213.93984    919.06466    705.12481    1451.7418   -213.93984            0   -5.3039214            0            0            0            0            0            0 
10116000    485.43137    100681.48    587.78886   -212.06966    895.31643    683.24677    1396.0232   -212.06966            0   -5.2014485            0            0            0            0            0            0 
10117000    480.93536    103359.95    601.57193   -214.48364    916.31071    701.82707    1426.7885   -214.48364            0   -5.0666581            0            0            0            0            0            0 
10118000    446.13968    101933.99    622.96199   -227.11691    948.89192    721.77501    1385.0074   -227.11691            0   -5.1375361            0            0            0            0            0            0 
10119000    545.04913    100705.45    609.22077   -204.54297    927.96139    723.41842    1523.9243   -204.54297            0   -5.2002104            0            0            0            0            0            0 
10120000    516.82205    93481.979     563.1381   -231.78475    857.76855     625.9838    1330.5873   -231.78475            0   -5.6020374            0            0            0            0            0            0 
10121000    532.91399     103099.4    630.01079    -200.7059    959.62861    758.92271    1560.2116    -200.7059            0   -5.0794628            0            0            0            0            0            0 
10122000    577.73791    102187.85    649.58913   -201.83155    989.45023    787.61867    1648.6243   -201.83155            0   -5.1247733            0            0            0            0            0            0 
10123000    501.44108    99946.085    605.22426   -214.21338    921.87392    707.66054    1438.5666   -214.21338            0   -5.2397204            0            0            0            0            0            0 
10124000    399.22551    103190.25    598.22103   -227.76718    911.20664    683.43946    1284.2435   -227.76718            0   -5.0749907            0            0            0            0            0            0 
10125000    517.99117    95827.121    609.77671   -235.92487    928.80818    692.88331    1416.7968   -235.92487            0   -5.4649408            0            0            0            0            0            0 
10126000    539.34998    95045.221    571.39068    -222.0618    870.33883    648.27702      1395.89    -222.0618            0   -5.5098987            0            0            0            0            0            0 
10127000    438.66981    105274.54    580.54344   -208.53234    884.28024     675.7479    1349.2469   -208.53234            0   -4.9745128            0            0            0            0            0            0 
10128000    468.12656    101677.89    588.46157   -216.91603     896.3411    679.42508    1373.5948   -216.91603            0   -5.1504762            0            0            0            0            0            0 
10129000    462.64283    93777.241    590.01658   -254.00948    898.70968     644.7002    1277.4313   -254.00948            0   -5.5843992            0            0            0            0            0            0 
10130000    498.08506    100819.07    627.29026   -216.43778    955.48471    739.04694    1471.4027   -216.43778            0   -5.1943499            0            0            0            0            0            0 
10131000    474.50837    102436.11    621.49426   -211.50496    946.65629    735.15132    1444.0315   -211.50496            0   -5.1123529            0            0            0            0            0            0 
10132000    476.45421    97781.703    545.05016   -211.98043     830.2171    618.23667    1297.6822   -211.98043            0   -5.3557008            0            0            0            0            0            0 
10133000    465.64326    103372.84    591.74846    -204.4744    901.34766    696.87327    1398.8709    -204.4744            0   -5.0660267            0            0            0            0            0            0 
10134000    565.86318    102770.01    637.48151   -199.31231    971.00797    771.69565    1619.8086   -199.31231            0    -5.095743            0            0            0            0            0            0 
10135000    472.77301    104232.83    622.19822   -208.91644    947.72856    738.81212     1457.488   -208.91644            0   -5.0242285            0            0            0            0            0            0 
10136000    517.08279    97814.464    596.19608   -214.03757    908.12226    694.08469    1431.7155   -214.03757            0    -5.353907            0            0            0            0            0            0 
10137000    447.57995     105488.5    547.44697   -195.66774     833.8679    638.20016    1326.7758   -195.66774            0   -4.9644229            0            0            0            0            0            0 
10138000    520.84888    100216.99    608.48517   -212.37626    926.84092    714.46466    1475.7176   -212.37626            0   -5.2255566            0            0            0            0            0            0 
10139000    627.87575    97944.461    642.02473   -189.99087    977.92818    787.93732    1684.8073   -189.99087            0    -5.346801            0            0            0            0            0            0 
10140000    498.91048    102733.29    607.38973   -207.73002    925.17236    717.44234    1464.9398   -207.73002            0    -5.097564            0            0            0            0            0            0 
10141000    573.23088    99343.047    624.77468   -204.69311    951.65301     746.9599    1577.4662   -204.69311            0   -5.2715269            0            0            0            0            0            0 
10142000    437.64646    100751.66    610.10066   -233.07906    929.30162    696.22256    1339.2826   -233.07906            0   -5.1978257            0            0            0            0            0            0 
10143000    486.86954    98490.154    583.30291     -219.918    888.48345    668.56546    1367.8941     -219.918            0   -5.3171767            0            0            0            0            0            0 
10144000    423.65751    109732.33    582.65886   -193.31113    887.50245    694.19131    1372.1846   -193.31113            0   -4.7724272            0            0            0            0            0            0 
10145000    485.68134    101962.11    628.33605   -217.66794    957.07766    739.40972    1461.6241   -217.66794            0   -5.1361193            0            0            0            0            0            0 
10146000    512.94465    97926.292    593.26411   -213.04331     903.6563    690.61299    1423.1772   -213.04331            0   -5.3477931            0            0            0            0            0            0 
10147000    440.07194    101291.47     587.1489   -220.70224    894.34165     673.6394    1323.7278   -220.70224            0   -5.1701248            0            0            0            0            0            0 
10148000    509.27476    101130.67    566.91071   -199.37824    863.51495    664.13671    1415.2594   -199.37824            0   -5.1783457            0            0            0            0            0            0 
10149000    478.33197    101637.45    589.96398   -216.20831    898.62956    682.42125    1391.4422   -216.20831            0   -5.1525252            0            0            0            0            0            0 
10150000    459.25727    103431.85    588.81186   -204.81965    896.87466      692.055    1384.8205   -204.81965            0   -5.0631363            0            0            0            0            0            0 
10151000    452.69758    104562.81    610.75849   -205.40116    930.30362    724.90246    1415.2397   -205.40116            0   -5.0083728            0            0            0            0            0            0 
10152000     509.3659    96405.944     597.8265   -222.91961    910.60569    687.68609    1403.8453   -222.91961            0   -5.4321292            0            0            0            0            0            0 
10153000    497.40734    102429.65    578.69299   -212.22778    881.46165    669.23388    1412.2765   -212.22778            0   -5.1126756            0            0            0            0            0            0 
10154000    505.18499    103283.66    611.85557   -203.19634     931.9747    728.77836    1489.7316   -203.19634            0   -5.0704007            0            0            0            0            0            0 
10155000    537.60227    100342.84    609.27693   -205.59037    928.04693    722.45655    1509.1823   -205.59037            0   -5.2190027            0            0            0            0            0            0 
10156000    423.83518     103711.1     588.5792     -216.531    896.52026    679.98926    1321.0484     -216.531            0   -5.0495034            0            0            0            0            0            0 
10157000    488.74462    96161.927    591.88552   -236.56909    901.55644    664.98734    1350.4141   -236.56909            0   -5.4459136            0            0            0            0            0            0 
10158000    532.25912    100282.06    635.81558   -213.07008    968.47043    755.40035    1533.8352   -213.07008            0   -5.2221657            0            0            0            0            0            0 
10159000    444.10358    102471.16    588.13225   -204.82268    895.83948     691.0168    1354.7015   -204.82268            0   -5.1106045            0            0            0            0            0            0 
10160000    499.83841    98322.701    610.96103   -235.71016    930.61213    694.90197    1411.6381   -235.71016            0   -5.3262323            0            0            0            0            0            0 
10161000    474.12422    103813.36    641.98879    -212.3588    977.87343    765.51462    1483.3441    -212.3588            0   -5.0445293            0            0            0            0            0            0 
10162000    494.89985    98319.389    569.53999   -223.92448    867.51986    643.59537     1353.226   -223.92448            0   -5.3264117            0            0            0            0            0            0 
10163000    513.54433    99745.457    585.49047   -210.28875    891.81554    681.52679    1428.5721   -210.28875            0   -5.2502596            0            0            0            0            0            0 
10164000     490.1246    105502.81    585.91063   -194.21389    892.45552    698.24163     1452.372   -194.21389            0   -4.9637498            0            0            0            0            0            0 
10165000    543.26409    97015.936    600.98706   -215.85621    915.41985    699.56364     1468.216   -215.85621            0   -5.3979745            0            0            0            0            0            0 
10166000    464.50872    101419.77    565.55202   -209.66882    861.44541    651.77659     1338.833   -209.66882            0   -5.1635846            0            0            0            0            0            0 
10167000    497.47392     98024.19    584.50817   -220.22579     890.3193    670.09351    1381.2734   -220.22579            0   -5.3424522            0            0            0            0            0            0 
10168000    569.49647    99557.281     628.5776   -207.40172    957.44558    750.04386     1576.919   -207.40172            0   -5.2601833            0            0            0            0            0            0 
10169000    409.88797    108532.32    609.44294    -219.2673    928.29979    709.03248    1357.8165    -219.2673            0   -4.8251946            0            0            0            0            0            0 
10170000    495.50662    101122.75    600.73567   -208.09468    915.03693    706.94224    1437.7013   -208.09468            0   -5.1787511            0            0            0            0            0            0 
10171000    466.99783    96160.277      565.253   -236.61195    860.98994    624.37799    1279.2953   -236.61195            0    -5.446007            0            0            0            0            0            0 
10172000    486.11972    110065.39    627.10723   -190.43543    955.20592     764.7705    1545.0854   -190.43543            0   -4.7579857            0            0            0            0            0            0 
10173000    464.33148    101000.35    578.25924   -216.44308    880.80097    664.35789    1348.3119   -216.44308            0    -5.185027            0            0            0            0            0            0 
10174000    577.11738    98038.278    566.63258   -198.44553    863.09131    664.64577    1489.8011   -198.44553            0   -5.3416845            0            0            0            0            0            0 
10175000    471.14666    107413.61    620.00811   -200.03333    944.39259    744.35926    1482.4187   -200.03333            0   -4.8754485            0            0            0            0            0            0 
10176000    499.65368    100294.07    594.03685   -218.20535    904.83333    686.62799    1417.4645   -218.20535            0   -5.2215404            0            0            0            0            0            0 
10177000    492.94876    100168.81    585.46454   -211.72514    891.77603    680.05089    1400.1797   -211.72514            0   -5.2280698            0            0            0            0            0            0 
10178000    452.28442    105109.81    592.47372   -210.46406    902.45238    691.98832    1385.3036   -210.46406            0   -4.9823091            0            0            0            0            0            0 
10179000    499.95224    105114.67    619.61269   -189.54663    943.79029    754.24366    1520.6652   -189.54663            0   -4.9820787            0            0            0            0            0            0 
10180000    498.27192    95390.022      565.688   -229.98984    861.65253     631.6627    1324.8415   -229.98984            0   -5.4899824            0            0            0            0            0            0 
10181000    430.82638    103105.17    581.04644    -217.3853    885.04642    667.66112    1315.4875    -217.3853            0   -5.0791781            0            0            0            0            0            0 
10182000    558.74998    99799.979    602.92008   -210.12375     918.3642    708.24045    1521.4901   -210.12375            0   -5.2473913            0            0            0            0            0            0 
10183000    476.89205    102904.16    614.98212   -214.69276    936.73703    722.04428    1437.7408   -214.69276            0   -5.0890997            0            0            0            0            0            0 
10184000    470.28115    104508.15     611.7883   -203.18759    931.87222    728.68463    1445.4609   -203.18759            0   -5.0109923            0            0            0            0            0            0 
10185000    509.35269    98102.454    562.22934   -216.31223    856.38432    640.07208     1368.815   -216.31223            0   -5.3381901            0            0            0            0            0            0 
10186000     498.3955    100007.05    630.76539   -224.34073    960.77802    736.43729    1463.3472   -224.34073            0   -5.2365264            0            0            0            0            0            0 
10187000    500.65303    106703.54    642.63072   -198.39638    978.85122    780.45483    1559.5519   -198.39638            0   -4.9078929            0            0            0            0            0            0 
10188000    546.05316    98233.999    594.43661   -213.61438    905.44224    691.82787    1474.1266   -213.61438            0   -5.3310417            0            0            0            0            0            0 
10189000    506.41553    101272.65    597.70888   -214.39906    910.42654    696.02749    1443.9818   -214.39906            0   -5.1710857            0            0            0            0            0            0 
10190000    436.20638    102514.29    603.04743   -211.89379    918.55819     706.6644    1358.8216   -211.89379            0   -5.1084542            0            0            0            0            0            0 
10191000    546.39645    95580.701    636.81481   -221.94068    969.99246    748.05179    1509.6992   -221.94068            0   -5.4790302            0            0            0            0            0            0 
10192000    536.97969    102742.72    605.78206   -198.14765    922.72356    724.57591    1529.1848   -198.14765            0   -5.0970961            0            0            0            0            0            0 
10193000    455.69484    102195.21    605.92615    -215.0306    922.94304    707.91244    1387.0856    -215.0306            0   -5.1244041            0            0            0            0            0            0 
10194000    482.94922    99948.618    601.71466    -228.9646    916.52812    687.56351    1391.5335    -228.9646            0   -5.2395877            0            0            0            0            0            0 
10195000    425.71844    102468.26    573.13143   -215.15045    872.99032    657.83987    1294.0311   -215.15045            0    -5.110749            0            0            0            0            0            0 
10196000    488.84998    101348.71    593.13188   -219.52194    903.45488    683.93294     1406.486   -219.52194            0   -5.1672047            0            0            0            0            0            0 
10197000    498.41249     100736.8    618.14952   -222.39339    941.56159    719.16821    1451.4074   -222.39339            0   -5.1985924            0            0            0            0            0            0 
10198000    498.65595    104892.82    571.79049   -186.31967     870.9478    684.62813    1447.4492   -186.31967            0   -4.9926157            0            0            0            0            0            0 
10199000    511.93773    100617.91    603.88734   -212.87905    919.83754    706.95849    1458.1805   -212.87905            0    -5.204735            0            0            0            0            0            0 
10200000    551.80967    97251.004    604.87434   -217.74632    921.34092    703.59461    1486.2297   -217.74632            0   -5.3849269            0            0            0            0            0            0 
10201000    460.21962    108518.36    608.06567    -196.7835    926.20193    729.41843    1457.7754    -196.7835            0    -4.825815            0            0            0            0            0            0 
10202000    473.42767    104917.35    595.63234   -211.88725    907.26357    695.37632    1419.7737   -211.88725            0   -4.9914484            0            0            0            0            0            0 
10203000    538.85721    98527.734    594.75235   -210.47083    905.92317    695.45234    1469.7502   -210.47083            0   -5.3151486            0            0            0            0            0            0 
10204000    555.21406    100394.15    603.21184   -196.06849    918.80861    722.74013    1535.6545   -196.06849            0    -5.216335            0            0            0            0            0            0 
10205000    496.55825    105778.16     626.6162   -203.38223      954.458    751.07577    1517.0993   -203.38223            0   -4.9508287            0            0            0            0            0            0 
10206000    550.21617        93882    604.88671   -231.92541    921.35976    689.43436    1442.7753   -231.92541            0   -5.5781678            0            0            0            0            0            0 
10207000    493.51198    97170.195    613.34237   -224.99037    934.23939    709.24902    1408.6185   -224.99037            0   -5.3894051            0            0            0            0            0            0 
10208000    463.00094    103098.44    576.34855   -206.55479    877.89061    671.33582    1367.4971   -206.55479            0   -5.0795098            0            0            0            0            0            0 
10209000    530.94038    98347.979    574.68731   -214.95811    875.36022    660.40211    1421.9322   -214.95811            0   -5.3248633            0            0            0            0            0            0 
10210000    507.69943    102135.21    616.35825   -215.16964    938.83315    723.66351    1479.9007   -215.16964            0   -5.1274146            0            0            0            0            0            0 
10211000    463.02918    112569.34      635.362   -196.22301    967.77954    771.55653    1531.7154   -196.22301            0   -4.6521507            0            0            0            0            0            0 
10212000    482.76937    97822.055    564.71347   -216.86554    860.16813    643.30259     1332.038   -216.86554            0   -5.3534915            0            0            0            0            0            0 
10213000    462.18211    102119.15    565.29226   -215.77213    861.04975    645.27761    1333.6068   -215.77213            0   -5.1282209            0            0            0            0            0            0 
10214000     480.1205    102241.98    615.96831   -218.91581     938.2392    719.32338    1435.2284   -218.91581            0   -5.1220597            0            0            0            0            0            0 
10215000    529.39128    98356.989    614.96226   -211.71833    936.70679    724.98845    1484.3663   -211.71833            0   -5.3243755            0            0            0            0            0            0 
10216000    436.37449    104688.55    616.78004   -210.52202    939.47561     728.9536    1395.1993   -210.52202            0   -5.0023573            0            0            0            0            0            0 
10217000    497.54909    104829.19    588.91371   -201.36751     897.0298    695.66229    1456.3284   -201.36751            0   -4.9956463            0            0            0            0            0            0 
10218000    519.84399    95912.197    587.63877   -229.29217     895.0878    665.79563    1392.9435   -229.29217            0   -5.4600933            0            0            0            0            0            0 
10219000     471.3616    102070.14    632.05756   -215.99226    962.74624    746.75398    1448.4173   -215.99226            0   -5.1306832            0            0            0            0            0            0 
10220000     509.3191    97797.039     621.3782   -227.82357     946.4795    718.65593    1445.0822   -227.82357            0   -5.3548609            0            0            0            0            0            0 
10221000    483.45104    107629.39    593.33143   -196.70139    903.75884    707.05744    1465.9133   -196.70139            0    -4.865674            0            0            0            0            0            0 
10222000    520.77117    107805.41    604.80486   -194.72548     921.2351    726.50962    1545.2824   -194.72548            0   -4.8577296            0            0            0            0            0            0 
10223000    510.25715    98771.008    614.11291   -215.54477    935.41306    719.86829    1454.8804   -215.54477            0   -5.3020573            0            0            0            0            0            0 
10224000    475.39672     104314.3    596.44335   -199.59368     908.4989    708.90521    1432.1344   -199.59368            0   -5.0203044            0            0            0            0            0            0 
10225000    461.21257    100656.83    575.88081   -221.45612    877.17815    655.72204    1332.7713   -221.45612            0   -5.2027226            0            0            0            0            0            0 
10226000    495.66082    97733.317    576.81909   -227.76846    878.60734    650.83887    1357.3242   -227.76846            0   -5.3583523            0            0            0            0            0            0 
10227000    491.72758    109982.88     607.8943   -182.84418    925.94091    743.09673    1531.8216   -182.84418            0   -4.7615553            0            0            0            0            0            0 
10228000     548.1757    98951.073    617.46059   -203.02193    940.51222    737.49029    1528.5626   -203.02193            0    -5.292409            0            0            0            0            0            0 
10229000    516.00876    100053.27    590.79286    -209.3468     899.8921     690.5453     1443.492    -209.3468            0   -5.2341074            0            0            0            0            0            0 
10230000     507.4862    103357.79    583.22429   -196.29323     888.3637    692.07047    1457.0386   -196.29323            0   -5.0667643            0            0            0            0            0            0 
10231000    519.68803     101848.4    640.65983    -205.7692    975.84917    770.07997    1542.0009    -205.7692            0   -5.1418536            0            0            0            0            0            0 
10232000    577.33674    95250.345    601.47454   -220.55151    916.16237    695.61085    1497.6058   -220.55151            0    -5.498033            0            0            0            0            0            0 
10233000    455.92201     108126.3    592.07672   -197.62001    901.84767    704.22766    1423.1762   -197.62001            0   -4.8433134            0            0            0            0            0            0 
10234000    411.45733    102418.12    605.72808   -227.26614    922.64133    695.37519    1309.9539   -227.26614            0   -5.1132508            0            0            0            0            0            0 
10235000    500.99987     95685.28    600.07517   -224.09812    914.03085    689.93274    1389.0639   -224.09812            0   -5.4730419            0            0            0            0            0            0 
10236000    444.14281    103502.49    596.27139   -209.85695    908.23696    698.38001    1368.8036   -209.85695            0   -5.0596809            0            0            0            0            0            0 
10237000    460.57751    102309.13     597.2468   -211.98216     909.7227    697.74054    1384.9561   -211.98216            0   -5.1186982            0            0            0            0            0            0 
10238000    498.05517    99637.449    593.63869   -215.96002    904.22685    688.26682    1411.9958   -215.96002            0    -5.255951            0            0            0            0            0            0 
10239000    542.10473    100972.64     633.1199   -215.92476    964.36439    748.43963    1546.7335   -215.92476            0   -5.1864502            0            0            0            0            0            0 
10240000    393.47352    113166.08    562.73589   -190.15819     857.1559    666.99771    1316.3908   -190.15819            0   -4.6276196            0            0            0            0            0            0 
10241000     430.5788    101789.27    610.38344   -232.36671    929.73235    697.36564    1336.5565   -232.36671            0   -5.1448402            0            0            0            0            0            0 
10242000    542.99375    97579.792    608.44981   -214.58117    926.78705    712.20588    1484.9409   -214.58117            0   -5.3667828            0            0            0            0            0            0 
10243000    481.28141    102183.06    588.42323   -210.33165    896.28269    685.95104    1403.1735   -210.33165            0   -5.1250131            0            0            0            0            0            0 
10244000    449.49315    107787.03     560.0516   -202.07116    853.06719    650.99603    1357.5827   -202.07116            0   -4.8585582            0            0            0            0            0            0 
10245000    510.09493     95288.28    598.09413    -229.2665    911.01335    681.74685    1390.6165    -229.2665            0   -5.4958442            0            0            0            0            0            0 
10246000    431.89413    102143.09    591.12861   -221.78028    900.40352    678.62324    1321.9953   -221.78028            0   -5.1270187            0            0            0            0            0            0 
10247000    461.16855    100380.09    567.71762    -212.4274    864.74403    652.31663      1327.44    -212.4274            0   -5.2170661            0            0            0            0            0            0 
10248000    444.68841    102120.17    561.34573    -207.9575    855.03842    647.08091    1309.3633    -207.9575            0   -5.1281696            0            0            0            0            0            0 
10249000    500.81056       101930    620.23965   -208.10217    944.74528    736.64311    1481.1203   -208.10217            0   -5.1377373            0            0            0            0            0            0 
10250000    504.82464    108884.99     603.0593   -186.24281    918.57626    732.33346    1533.9828   -186.24281            0   -4.8095662            0            0            0            0            0            0 
10251000    477.11617    99413.079     587.1407   -222.62477    894.32916    671.70439    1363.4454   -222.62477            0   -5.2678134            0            0            0            0            0            0 
10252000    547.23467    96124.032    618.78444   -218.36166    942.52871    724.16705    1491.3191   -218.36166            0   -5.4480605            0            0            0            0            0            0 
10253000    579.93594    104779.22    654.96447   -191.34809    997.63791    806.28981    1692.4884   -191.34809            0   -4.9980289            0            0            0            0            0            0 
10254000      492.967    100018.44    596.26827   -222.19292    908.23222    686.03929    1405.1137   -222.19292            0   -5.2359297            0            0            0            0            0            0 
10255000    368.22825    101559.34    540.83388   -235.40129    823.79489    588.39361    1133.7908   -235.40129            0   -5.1564882            0            0            0            0            0            0 
10256000     474.4854    101514.57    586.63127   -211.18789     893.5532    682.36531    1384.8342   -211.18789            0   -5.1587623            0            0            0            0            0            0 
10257000    461.64284    101939.91    620.74412    -223.9688    945.51368    721.54488    1407.8642    -223.9688            0   -5.1372377            0            0            0            0            0            0 
10258000    373.09153     105783.3    546.76067   -219.60454    832.82253    613.21799    1188.8016   -219.60454            0    -4.950588            0            0            0            0            0            0 
10259000    530.44528     96223.81    598.29058   -220.37507    911.31258    690.93751    1435.3249   -220.37507            0   -5.4424113            0            0            0            0            0            0 
10260000    499.97354    104024.07    621.35603   -204.07905    946.44574    742.36669    1500.8688   -204.07905            0    -5.034311            0            0            0            0            0            0 
10261000    525.49678    97235.511    610.71844   -223.48658    930.24262    706.75605    1451.9526   -223.48658            0   -5.3857849            0            0            0            0            0            0 
10262000    525.48371    99743.829     619.9612   -214.83486    944.32114    729.48628    1493.8872   -214.83486            0   -5.2503453            0            0            0            0            0            0 
10263000    403.22631    106318.63    584.90893   -218.77553    890.92974    672.15421     1297.376   -218.77553            0    -4.925661            0            0            0            0            0            0 
10264000    442.54876    99080.655    610.71576   -233.44855    930.23854    696.78999    1336.2684   -233.44855            0   -5.2854873            0            0            0            0            0            0 
10265000     493.8274     99945.06    580.05756   -215.70194    883.54016    667.83822    1387.6392   -215.70194            0   -5.2397742            0            0            0            0            0            0 
10266000    495.30567     103627.4     638.4289   -207.87601    972.45102    764.57501    1513.1302   -207.87601            0   -5.0535817            0            0            0            0            0            0 
10267000    495.10287    104064.05    587.85509   -211.16491    895.41731     684.2524    1435.6539   -211.16491            0    -5.032377            0            0            0            0            0            0 
10268000    473.34879    102879.59    605.78423   -214.61897    922.72686     708.1079    1418.3172   -214.61897            0   -5.0903153            0            0            0            0            0            0 
10269000    498.54281    99155.543    623.39031   -220.74688    949.54435    728.79746    1449.7312   -220.74688            0   -5.2814954            0            0            0            0            0            0 
10270000    471.76359     96520.28    620.10519   -239.75638    944.54047    704.78409    1368.8618   -239.75638            0   -5.4256944            0            0            0            0            0            0 
10271000    434.83841    104206.19    572.77799   -212.28478    872.45197    660.16719    1321.0087   -212.28478            0    -5.025513            0            0            0            0            0            0 
10272000    494.29208    97510.045    578.25511   -222.39687    880.79467     658.3978    1361.3227   -222.39687            0   -5.3706215            0            0            0            0            0            0 
10273000    525.52485    101595.86    608.19049   -198.87722    926.39206    727.51484      1506.17   -198.87722            0   -5.1546349            0            0            0            0            0            0 
10274000    550.82554    104790.19    625.62094   -183.47229    952.94201    769.46972    1611.2729   -183.47229            0   -4.9975056            0            0            0            0            0            0 
10275000    454.95422    103937.45    600.42314   -214.75766    914.56089    699.80323    1389.4324   -214.75766            0    -5.038507            0            0            0            0            0            0 
10276000    518.30622    97502.637    571.54352   -221.03884    870.57162    649.53277    1386.5517   -221.03884            0   -5.3710296            0            0            0            0            0            0 
10277000    482.84012    104152.96    624.17186   -204.92556     950.7348    745.80924     1479.226   -204.92556            0   -5.0280813            0            0            0            0            0            0 
10278000    607.47496    99874.841    612.59473   -198.49358    933.10058    734.60701    1619.4381   -198.49358            0   -5.2434581            0            0            0            0            0            0 
10279000    496.39932    100796.62    578.01187   -206.55897    880.42417     673.8652    1403.5798   -206.55897            0   -5.1955071            0            0            0            0            0            0 
10280000    490.88887    107207.87    615.13445   -196.98089    936.96907    739.98818    1507.5012   -196.98089            0   -4.8848052            0            0            0            0            0            0 
10281000    488.32759    96299.461    591.03625   -223.20621    900.26283    677.05661     1362.878   -223.20621            0   -5.4381358            0            0            0            0            0            0 
10282000    421.23253    99022.212    591.87391   -231.10923    901.53875    670.42952    1278.7472   -231.10923            0   -5.2886068            0            0            0            0            0            0 
10283000    454.76251    103939.65    598.49493   -219.68998    911.62385    691.93387     1381.287   -219.68998            0   -5.0384003            0            0            0            0            0            0 
10284000    476.36498    102635.43    577.44794   -201.54223    879.56521    678.02298    1391.0616   -201.54223            0   -5.1024244            0            0            0            0            0            0 
10285000    442.67329    98197.387    562.02419   -232.49009    856.07184    623.58175    1257.5378   -232.49009            0   -5.3330293            0            0            0            0            0            0 
10286000    533.84268    99406.169     610.8557    -212.8756    930.45169    717.57609    1491.5076    -212.8756            0   -5.2681795            0            0            0            0            0            0 
10287000    541.27036    103574.06    611.54015   -197.59555    931.49425     733.8987    1551.4991   -197.59555            0   -5.0561845            0            0            0            0            0            0 
10288000    472.01417     96753.93    568.05389   -226.78905    865.25623    638.46719     1304.506   -226.78905            0    -5.412592            0            0            0            0            0            0 
10289000    526.28149       103830    587.57456   -200.81384       894.99    694.17616       1491.1   -200.81384            0   -5.0437211            0            0            0            0            0            0 
10290000    481.59798       106814    602.41784   -200.23674     917.5992    717.36245    1467.5826   -200.23674            0   -4.9028174            0            0            0            0            0            0 
10291000    547.60206    98678.303    601.04006   -220.21164    915.50057    695.28892     1483.355   -220.21164            0   -5.3070384            0            0            0            0            0            0 
10292000     470.7324    98445.387    595.08148   -225.29514     906.4245    681.12937    1356.9716   -225.29514            0   -5.3195946            0            0            0            0            0            0 
10293000    442.78001    100473.62    573.34903   -224.15316    873.32177    649.16862    1297.9763   -224.15316            0   -5.2122092            0            0            0            0            0            0 
10294000    492.42171    99785.632    623.14042   -221.41441    949.16371     727.7493    1444.3564   -221.41441            0   -5.2481458            0            0            0            0            0            0 
10295000     532.3354    100932.27    635.91131    -216.9415    968.61626    751.67475    1535.2691    -216.9415            0   -5.1885243            0            0            0            0            0            0 
10296000    467.41914    104796.75    575.33433   -211.42304    876.34576    664.92273    1379.3042   -211.42304            0   -4.9971927            0            0            0            0            0            0 
10297000    504.82625    103409.56     584.9496   -201.84757    890.99169    689.14411    1450.4838   -201.84757            0   -5.0642278            0            0            0            0            0            0 
10298000    519.54939    101465.86     602.1834    -201.9653     917.2421    715.27679    1484.0933    -201.9653            0   -5.1612388            0            0            0            0            0            0 
10299000     482.7588    106733.36    599.14141   -194.35624    912.60857    718.25232     1469.713   -194.35624            0   -4.9065215            0            0            0            0            0            0 
10300000    519.39491    96692.122    606.74831   -227.46402    924.19535    696.73133    1429.1589   -227.46402            0   -5.4160518            0            0            0            0            0            0 
10301000    455.90012    102380.44    623.31868   -219.37968    949.43523    730.05555    1410.7662   -219.37968            0   -5.1151329            0            0            0            0            0            0 
10302000    463.87837    104336.84    573.08623   -208.95319    872.92147    663.96828    1369.8268   -208.95319            0   -5.0192201            0            0            0            0            0            0 
10303000    506.66058     101325.8    583.58254   -196.33613    888.90939    692.57325    1441.2822   -196.33613            0   -5.1683733            0            0            0            0            0            0 
10304000    508.21621    96498.687    609.94257   -222.18578    929.06082    706.87504    1422.1052   -222.18578            0   -5.4269085            0            0            0            0            0            0 
10305000    427.61868    103430.97     623.6744   -223.08844    949.97706    726.88862    1371.9234   -223.08844            0   -5.0631792            0            0            0            0            0            0 
10306000     493.9139    99166.661    598.34285   -219.00618     911.3922    692.38602    1406.7061   -219.00618            0   -5.2809033            0            0            0            0            0            0 
10307000    539.24381    98670.162    599.53796    -214.7468    913.21259    698.46579    1474.4393    -214.7468            0   -5.3074763            0            0            0            0            0            0 
10308000    480.89868    104797.42    615.99334    -199.9194    938.27731    738.35791    1473.3456    -199.9194            0   -4.9971607            0            0            0            0            0            0 
10309000    520.65793    94178.926    596.52649   -237.46599    908.62553    671.15954    1386.2848   -237.46599            0    -5.560581            0            0            0            0            0            0 
10310000    532.88637    100568.41    617.49484   -212.41614     940.5644    728.14826    1509.7258   -212.41614            0   -5.2072968            0            0            0            0            0            0 
10311000      491.287     101540.8    585.34033   -210.61259    891.58685    680.97425    1408.5057   -210.61259            0   -5.1574297            0            0            0            0            0            0 
10312000    478.50552     103496.9    581.32728   -208.89652    885.47418    676.57767     1398.832   -208.89652            0    -5.059954            0            0            0            0            0            0 
10313000    538.28932    102918.58     589.7182   -200.67228    898.25518     697.5829    1505.5346   -200.67228            0    -5.088387            0            0            0            0            0            0 
10314000    489.72819    98623.174    616.95086   -225.93817     939.7358    713.79764    1418.1824   -225.93817            0    -5.310005            0            0            0            0            0            0 
10315000    469.53727    101065.22    582.69272   -215.30251    887.55401     672.2515    1364.3178   -215.30251            0   -5.1816991            0            0            0            0            0            0 
10316000    494.06454     104782.1    596.40316   -200.11976    908.43768    708.31791    1463.3174   -200.11976            0   -4.9978913            0            0            0            0            0            0 
10317000    511.59242    98165.229    581.80855   -216.16575    886.20726    670.04151    1402.4573   -216.16575            0   -5.3347764            0            0            0            0            0            0 
10318000     512.3475    96684.751    644.95953   -231.27684    982.39845    751.12161    1473.5561   -231.27684            0   -5.4164647            0            0            0            0            0            0 
10319000    413.74568    111376.26    567.00898   -197.64218    863.66464    666.02246    1338.0731   -197.64218            0   -4.7019852            0            0            0            0            0            0 
10320000    421.75924    102465.69    592.02698   -215.35272     901.7719    686.41918    1316.6781   -215.35272            0   -5.1108769            0            0            0            0            0            0 
10321000    460.63936     96761.05    549.12996   -225.68214    836.43143     610.7493    1260.7854   -225.68214            0   -5.4121937            0            0            0            0            0            0 
10322000    411.63696    102262.92     583.6633   -225.40742     889.0324    663.62498    1277.5403   -225.40742            0   -5.1210111            0            0            0            0            0            0 
10323000    452.61655    105169.14     597.2035    -214.8501    909.65676    694.80665    1389.0227    -214.8501            0   -4.9794983            0            0            0            0            0            0 
10324000    641.48433    94176.223    605.82528    -223.6879    922.78939    699.10149    1580.1569    -223.6879            0   -5.5607406            0            0            0            0            0            0 
10325000     502.8601    101794.61    612.93501   -211.99017    933.61889    721.62872    1468.1598   -211.99017            0   -5.1445702            0            0            0            0            0            0 
10326000    485.04763    105713.55    580.67091    -191.8567    884.47441    692.61771    1440.4271    -191.8567            0   -4.9538544            0            0            0            0            0            0 
10327000    531.90606    99580.527    590.65036   -205.27575    899.67505     694.3993    1466.8757   -205.27575            0   -5.2589554            0            0            0            0            0            0 
10328000    484.63106    107531.41    599.64006   -189.63546     913.3681    723.73265    1483.7482   -189.63546            0   -4.8701076            0            0            0            0            0            0 
10329000    493.77254    99197.214    586.97084   -214.48585    894.07042    679.58457    1393.9202   -214.48585            0   -5.2792768            0            0            0            0            0            0 
10330000    537.47031    99471.991    618.35167   -211.27672    941.86952     730.5928    1510.2993   -211.27672            0   -5.2646935            0            0            0            0            0            0 
10331000      457.436    103487.66    606.49632   -214.37966    923.81152    709.43186    1399.8223   -214.37966            0   -5.0604057            0            0            0            0            0            0 
10332000    507.31284    100631.69    604.16649   -217.48861    920.26273    702.77412    1447.3115   -217.48861            0   -5.2040224            0            0            0            0            0            0 
10333000    474.40604    101332.03    587.65243   -217.70158    895.10862    677.40705    1378.4955   -217.70158            0   -5.1680556            0            0            0            0            0            0 
10334000    420.54603    105262.34    576.36436   -217.68933    877.91469    660.22537    1305.8238   -217.68933            0   -4.9750893            0            0            0            0            0            0 
10335000    463.13265    97859.434    588.87876   -228.10752    896.97656    668.86904    1329.8424   -228.10752            0   -5.3514467            0            0            0            0            0            0 
10336000    569.87993    101535.95    635.63162   -204.79751    968.19023    763.39272    1607.2696   -204.79751            0   -5.1576762            0            0            0            0            0            0 
10337000    411.29795    108563.27     584.4329   -201.78133    890.20465    688.42331    1339.6247   -201.78133            0   -4.8238189            0            0            0            0            0            0 
10338000    490.39413    98247.425    617.80005   -229.16954    941.02929    711.85976    1414.5151   -229.16954            0   -5.3303132            0            0            0            0            0            0 
10339000     473.7162    101400.22    564.20543   -204.65608    859.39429    654.73821    1355.2783   -204.65608            0     -5.16458            0            0            0            0            0            0 
10340000    453.32848    105441.41    586.82941   -203.85819    893.85499     689.9968    1387.1048   -203.85819            0   -4.9666402            0            0            0            0            0            0 
10341000    483.56878    101528.72    601.16745   -210.76981    915.69462    704.92481    1420.9413   -210.76981            0   -5.1580436            0            0            0            0            0            0 
10342000    539.97875    92523.373    624.34836   -243.08565    951.00364    707.91799    1436.5429   -243.08565            0   -5.6600784            0            0            0            0            0            0 
10343000    445.06258    101105.41    621.61043   -222.86492    946.83323    723.96831    1380.2214   -222.86492            0   -5.1796394            0            0            0            0            0            0 
10344000    475.71802    101798.21    596.31543   -213.80529    908.30405    694.49876    1400.7604   -213.80529            0   -5.1443884            0            0            0            0            0            0 
10345000    494.29967    102031.18    586.86824   -212.86238    893.91415    681.05177    1416.5796   -212.86238            0   -5.1326423            0            0            0            0            0            0 
10346000    544.66452    96971.904    604.30348   -214.88654    920.47139    705.58485    1475.8689   -214.88654            0   -5.4004255            0            0            0            0            0            0 
10347000     533.6876    98503.921    628.97753   -215.00487    958.05475    743.04989    1509.7341   -215.00487            0   -5.3164335            0            0            0            0            0            0 
10348000    500.98556    106258.37        581.5    -195.6865    885.73727    690.05077    1466.4127    -195.6865            0   -4.9284544            0            0            0            0            0            0 
10349000    477.27913    103026.49    598.79135   -206.82129    912.07535    705.25406    1422.3829   -206.82129            0   -5.0830574            0            0            0            0            0            0 
10350000    514.93959    97392.192    602.21056   -233.29833    917.28347    683.98514    1415.3874   -233.29833            0   -5.3771204            0            0            0            0            0            0 
10351000    536.10637    104971.41    625.01662   -194.53841    952.02153    757.48312    1578.2085   -194.53841            0   -4.9888779            0            0            0            0            0            0 
10352000    522.45363    101181.86    614.63684   -217.33173     936.2111    718.87937    1489.8295   -217.33173            0   -5.1757257            0            0            0            0            0            0 
10353000    543.40652    100194.64    612.94262   -210.73815    933.63048    722.89233    1516.9375   -210.73815            0    -5.226722            0            0            0            0            0            0 
[...]
14939000    501.98877    107132.17    593.62719   -185.94285    904.20934    718.26649    1502.5802   -185.94285            0   -4.8882565            0            0            0            0            0            0 
14940000    465.01574    104281.57    600.67242    -206.3415    914.94059    708.59909    1415.8135    -206.3415            0   -5.0218799            0            0            0            0            0            0 
14941000    542.17146    99236.407    613.03878    -207.9919    933.77695    725.78505    1510.4488    -207.9919            0   -5.2771917            0            0            0            0            0            0 
14942000    454.41552    105946.75    604.56132   -194.79653    920.86414    726.06761    1428.1963   -194.79653            0   -4.9429503            0            0            0            0            0            0 
14943000    475.01832    101775.33    577.76267   -213.26973     880.0446    666.77486    1371.8392   -213.26973            0   -5.1455452            0            0            0            0            0            0 
14944000    471.95829    100442.78    586.50558   -217.42052    893.36175    675.94123    1367.2916   -217.42052            0     -5.21381            0            0            0            0            0            0 
14945000    530.40407    98844.372    623.48874   -221.52091    949.69427    728.17336     1492.774   -221.52091            0   -5.2981221            0            0            0            0            0            0 
14946000    451.40683    102374.74    590.24232   -215.12484    899.05353    683.92869    1357.8929   -215.12484            0   -5.1154178            0            0            0            0            0            0 
14947000    459.55478    98737.297    593.92995   -227.67019     904.6705    677.00031     1338.751   -227.67019            0   -5.3038675            0            0            0            0            0            0 
14948000    436.77241    102596.63    556.22738   -214.61517    847.24216      632.627    1286.1549   -214.61517            0   -5.1043544            0            0            0            0            0            0 
14949000    615.35291    96866.638     603.7179   -198.50588    919.57944    721.07356     1590.383   -198.50588            0   -5.4062942            0            0            0            0            0            0 
14950000    546.42163    105346.46    586.75801    -181.6379    893.74625    712.10835    1551.6141    -181.6379            0   -4.9711169            0            0            0            0            0            0 
14951000    441.37342    104457.62    596.88685   -209.58191    909.17443    699.59252     1371.984   -209.58191            0   -5.0134166            0            0            0            0            0            0 
14952000    597.66774    96891.002    604.47449   -202.49181    920.73187    718.24007     1562.778   -202.49181            0   -5.4049348            0            0            0            0            0            0 
14953000     429.6718    105450.47    587.18459   -206.86298      894.396    687.53302    1348.3196   -206.86298            0   -4.9662137            0            0            0            0            0            0 
14954000    441.05492    102965.19    601.19542   -224.75143    915.73722    690.98579    1353.2922   -224.75143            0   -5.0860835            0            0            0            0            0            0 
14955000    580.30067    97845.975    597.75588   -211.23178    910.49813    699.26635    1527.3456   -211.23178            0   -5.3521828            0            0            0            0            0            0 
14956000    485.62889    105079.46    615.74036    -209.1301    937.89198    728.76188    1472.9766    -209.1301            0    -4.983748            0            0            0            0            0            0 
14957000    572.11466    100837.58    625.87015   -200.39176    953.32162    752.92986    1594.2889   -200.39176            0   -5.1933966            0            0            0            0            0            0 
14958000    505.50934    98304.499     581.7823   -215.46868    886.16727    670.69859    1395.4323   -215.46868            0   -5.3272185            0            0            0            0            0            0 
14959000    481.28727    106958.25     615.4578    -193.0962    937.46159    744.36539     1495.114    -193.0962            0   -4.8962053            0            0            0            0            0            0 
14960000    504.24055    98350.173    579.75637   -226.94898    883.08139     656.1324     1379.383   -226.94898            0   -5.3247445            0            0            0            0            0            0 
14961000    395.42139    102302.33    571.78459    -225.0307    870.93881    645.90811    1235.8668    -225.0307            0   -5.1190382            0            0            0            0            0            0 
14962000     489.6699    104754.33    571.77454   -190.94024    870.92351    679.98328    1428.0688   -190.94024            0   -4.9992163            0            0            0            0            0            0 
14963000    468.74786    100099.21    589.12024   -228.97162    897.34438    668.37276    1352.6716   -228.97162            0   -5.2317052            0            0            0            0            0            0 
14964000    555.59639    99970.734    607.85888   -206.42792    925.88696    719.45904    1529.5022   -206.42792            0   -5.2384285            0            0            0            0            0            0 
14965000    527.08423    102770.43    651.38294   -212.14473    992.18255    780.03781    1570.0323   -212.14473            0   -5.0957222            0            0            0            0            0            0 
14966000    486.47858    105190.64    594.86555   -199.65571     906.0956    706.43988    1452.7455   -199.65571            0   -4.9784805            0            0            0            0            0            0 
14967000    512.47719    95921.146    573.55369   -219.31587     873.6335    654.31762    1371.2279   -219.31587            0   -5.4595839            0            0            0            0            0            0 
14968000    501.17134    97870.662     594.9915    -218.4277    906.28745    687.85975    1403.2033    -218.4277            0   -5.3508328            0            0            0            0            0            0 
14969000    522.82033    107657.69    631.19821   -197.46401    961.43728    763.97327    1584.8414   -197.46401            0   -4.8643953            0            0            0            0            0            0 
14970000    489.54735    98251.542    590.81725   -232.29674    899.92925    667.63252    1369.1039   -232.29674            0   -5.3300898            0            0            0            0            0            0 
14971000    439.36606    101339.43    577.64123   -218.28078    879.85961    661.57883    1310.9318   -218.28078            0    -5.167678            0            0            0            0            0            0 
14972000    417.21562    106608.62    593.94554   -214.64125    904.69424      690.053    1338.7304   -214.64125            0   -4.9122629            0            0            0            0            0            0 
14973000     525.7284    95491.169    605.17363   -229.38291     921.7968    692.41388    1424.5647   -229.38291            0   -5.4841673            0            0            0            0            0            0 
14974000    513.87791    100614.93    604.97065    -217.3463    921.48763    704.14132    1458.1881    -217.3463            0    -5.204889            0            0            0            0            0            0 
14975000    459.15541    103355.43    610.36049   -224.92626    929.69739    704.77113    1396.8712   -224.92626            0   -5.0668797            0            0            0            0            0            0 
14976000    503.36263    95527.214    571.74847   -231.36227     870.8838    639.52154    1340.7895   -231.36227            0    -5.482098            0            0            0            0            0            0 
14977000    514.34797    102507.64    628.43035   -204.69436     957.2213    752.52694    1521.4611   -204.69436            0   -5.1087855            0            0            0            0            0            0 
14978000    550.05051    102947.87    610.46317   -193.41036    929.85379    736.44344    1562.2833   -193.41036            0   -5.0869391            0            0            0            0            0            0 
14979000     517.7341    100944.42    630.70845   -219.30222    960.69128    741.38906    1503.5821   -219.30222            0   -5.1878999            0            0            0            0            0            0 
14980000    500.80653    102391.97    607.04236   -202.96441    924.64324    721.67883    1469.5242   -202.96441            0   -5.1145566            0            0            0            0            0            0 
14981000    517.18569    98191.873    606.29467   -224.70348    923.50437    698.80089    1439.4252   -224.70348            0   -5.3333288            0            0            0            0            0            0 
14982000    495.14902    98478.402    604.46752   -218.97938    920.72126    701.74188    1412.8781   -218.97938            0   -5.3178112            0            0            0            0            0            0 
14983000      513.485    103827.65     577.2157   -190.38027    879.21145    688.83119    1466.3604   -190.38027            0   -5.0438349            0            0            0            0            0            0 
14984000    520.93311    100555.97     604.9104   -203.36612    921.39586    718.02974    1481.9811   -203.36612            0    -5.207941            0            0            0            0            0            0 
14985000    493.55862    101996.43    610.51002   -216.27511    929.92516    713.65005     1447.825   -216.27511            0   -5.1343911            0            0            0            0            0            0 
14986000    449.41483    101958.41    581.31259   -221.27342    885.45181    664.17839    1332.4397   -221.27342            0   -5.1363057            0            0            0            0            0            0 
14987000    532.10549    97396.815    618.53861   -214.21807    942.15427     727.9362    1483.7562   -214.21807            0   -5.3768652            0            0            0            0            0            0 
14988000    483.88554    104295.25    610.26444   -208.44707    929.55109    721.10402    1457.1129   -208.44707            0   -5.0212213            0            0            0            0            0            0 
14989000    435.03323     102410.9    565.18701   -216.81119    860.88943    644.07824    1293.8256   -216.81119            0   -5.1136115            0            0            0            0            0            0 
14990000    520.10205     96145.65    579.71039   -230.91578    883.01134    652.09557    1381.3752   -230.91578            0   -5.4468355            0            0            0            0            0            0 
14991000    460.35741    102693.82    568.90797   -216.74851    866.55717    649.80866    1339.2786   -216.74851            0   -5.0995236            0            0            0            0            0            0 
14992000    496.82908    102829.21    596.12711   -208.88585     908.0172    699.13135    1444.2053   -208.88585            0   -5.0928091            0            0            0            0            0            0 
14993000    534.00281    103714.17    595.18615   -192.66841    906.58393    713.91552    1521.6293   -192.66841            0   -5.0493541            0            0            0            0            0            0 
14994000    545.38028    97025.933    625.20081   -226.40954    952.30208    725.89255    1497.6186   -226.40954            0   -5.3974183            0            0            0            0            0            0 
14995000    443.41631     106276.8    600.79511   -208.93054    915.12746    706.19692    1393.4648   -208.93054            0   -4.9275998            0            0            0            0            0            0 
14996000    503.59006    98249.223    597.07888   -223.52335    909.46692    685.94357    1407.5197   -223.52335            0   -5.3302156            0            0            0            0            0            0 
14997000    461.96721    96416.925    589.95675   -237.88584    898.61854    660.73271    1310.3242   -237.88584            0   -5.4315106            0            0            0            0            0            0 
14998000    470.30009    105342.38    592.24992   -200.03585    902.11149    702.07564    1424.6027   -200.03585            0   -4.9713091            0            0            0            0            0            0 
14999000    445.98222    101331.55    641.25473   -229.03991    976.75532     747.7154    1406.7954   -229.03991            0   -5.1680801            0            0            0            0            0            0 
15000000    502.37418    100481.19    602.81992   -210.63943    918.21165    707.57221    1443.7589   -210.63943            0   -5.2118169            0            0            0            0            0            0 
Loop time of 1004.19 on 8 procs for 5000000 steps with 512 atoms

Pair  time (%) = 472.933 (47.096)
Bond  time (%) = 0.436511 (0.043469)
Neigh time (%) = 26.6221 (2.6511)
Comm  time (%) = 349.119 (34.7663)
Outpt time (%) = 0.256245 (0.0255176)
Other time (%) = 154.822 (15.4176)

Nlocal:    64 ave 71 max 59 min
Histogram: 1 4 0 0 0 0 1 0 0 2
Nghost:    891.125 ave 914 max 880 min
Histogram: 3 1 0 1 2 0 0 0 0 1
Neighs:    3284.62 ave 3876 max 2767 min
Histogram: 1 1 2 0 1 0 0 0 1 2

Total # of neighbors = 26277
Ave neighs/atom = 51.3223
Ave special neighs/atom = 0
Neighbor list builds = 113805
Dangerous builds = 0

Averages
Group Pressure(MPa) Volume(m3) Temperature(K) PE(J) KE(J) ET(J) ET^2(J) H(J) H^2(J^2) V^2(m6) V*H(m3*J) Hconf(J) Uext*Hconf(J^2) V*Hconf(m3*J) Uext(J)
Block1 49.965513882948670243 1.0157664584337156826e-25 600.39575278513905232 -1.4774423593800549234e-18 6.3538001206386624802e-18 4.8763577612586158383e-18 2.3839601374062147171e-35 9.9433378476743103426e-18 9.9194670528879879935e-35 1.0331518008798543379e-50 1.0100592477439873003e-42 3.5895377270356409291e-18 -5.2800240354719827503e-36 3.6465642038681102829e-43 -1.4774423593800549234e-18
Block2 50.051286278210127989 1.0152234132442107571e-25 600.08025905084002716 -1.4740744222203786162e-18 6.3504613493069917645e-18 4.876386927086621815e-18 2.383852282708760048e-35 9.949195756180769437e-18 9.9295225877629619955e-35 1.0320409644871521571e-50 1.0101120750999045408e-42 3.5987344068737822947e-18 -5.2816104608954938503e-36 3.6535858091312261723e-43 -1.4740744222203786162e-18
Block3 49.820633998453033087 1.0148159003064229853e-25 600.63922160015704321 -1.4774950118722602988e-18 6.3563766748182220626e-18 4.8788816629459708157e-18 2.3860850821262574273e-35 9.9265729878471263843e-18 9.8836922444400915978e-35 1.0311476274598462407e-50 1.0073667732200024072e-42 3.5701963130288866031e-18 -5.2520957989034644477e-36 3.6231447609717233006e-43 -1.4774950118722602988e-18
Block4 50.275156112040200185 1.0140236773585860855e-25 600.55673142045702662 -1.4738907771939068301e-18 6.3555037070943629441e-18 4.8816129299004549584e-18 2.3884555557174698633e-35 9.9709928787889849738e-18 9.9734191400420136868e-35 1.0295080762932679846e-50 1.0109969295342795547e-42 3.6154891716946174075e-18 -5.3062261296086651413e-36 3.6655019552571766473e-43 -1.4738907771939068301e-18
Block5 50.142052955388955127 1.0143914976418594457e-25 600.45389972082364238 -1.4769135230630543896e-18 6.3544154714389458051e-18 4.8775019483758971933e-18 2.3849876067776188222e-35 9.9558384152913898264e-18 9.9439632416628866354e-35 1.0302803337662596861e-50 1.0099327747085810811e-42 3.6014229438524347769e-18 -5.2964256930974595249e-36 3.6534753522703151409e-43 -1.4769135230630543896e-18
Ave_blocks 50.050928645408198747 1.0148441893969589683e-25 600.42517291548335834 -1.4759632187459311657e-18 6.3541114646594371654e-18 4.8781482459135111997e-18 2.3854681329472642825e-35 9.9491875771565177336e-18 9.9300128533591888095e-35 1.0312257605772761287e-50 1.0096935600613509768e-42 3.5950761124970728645e-18 -5.2832764235954130093e-36 3.6484544162997101495e-43 -1.4759632187459311657e-18
Stdev_blocks 0.1542161020290147011 6.1210473047965702177e-29 0.19171897510636445872 1.6309440084824903646e-21 2.0289018393449859155e-21 1.9630443443479854898e-21 1.6983079250958470585e-38 1.4596875547342513417e-20 2.9447485923197929328e-37 1.282541586100764687e-53 1.2230138964224251971e-45 1.4966873467087833527e-20 1.8358524510075727966e-38 1.4045007161099314122e-45 1.6309440084824903646e-21






Properties
Group rho(kg/m3) Cp(J/K) Cp_conf(J/K) Cp_id(J/K) Cp2(J/K) kT(1/Pa) aP(1/K) aP2(1/K) Cv(J/K) uJT(K/Pa) sos(m/s) Cv2(J/K) uJT2(K/Pa) sos2(m/s) CvNVT(J/K)
Block1 134.2752957329540493 6.5242084202747358272e-20 -1.9511803648460853856e-21 4.4647938997691486319e-20 4.269675863284540319e-20 1.6274282344981422945e-08 9.5622596614608872394e-05 8.5489310627720222369e-05 6.5207819205730685553e-20 -1.4675341764298508181e-06 676.6515690945731194 4.2669371077831255995e-20 -2.2569155567342954448e-06 676.69092209607845234 1.2203665796150246602e-20
Block2 134.34711987773428632 6.2097839011398399329e-20 -2.337282671785166345e-21 4.4632173677426703941e-20 4.22948910056415391e-20 1.619742165431807036e-08 9.1984162746134093269e-05 1.3151695372453268032e-05 6.2066015272958345603e-20 -1.5446354465221278811e-06 678.06946466190595402 4.2294240443841253391e-20 -2.3814015646918975246e-06 677.90090837111256405 1.1942349021907604867e-20
Block3 134.40106876589044305 6.0243981030631909797e-20 -2.4283494175160981298e-21 4.466010350504184188e-20 4.2231754087525742998e-20 1.5403758173830840175e-08 4.6745496094942629457e-06 1.0440776698803880024e-05 6.0243894562952098306e-20 -1.679780396792682474e-06 695.00128019666453838 4.2231322727522057988e-20 -2.3878995071865518596e-06 695.00433086796931548 1.1516829068441124774e-20
Block4 134.50607184744322353 6.295579819497215653e-20 -3.2246717513428108001e-21 4.4655982189350992987e-20 4.1431310438008181435e-20 1.5034246400567746947e-08 -0.00016904409897065394096 -0.0001365846795543714659 6.2840048327852517591e-20 -1.7742097990461365764e-06 703.86251248592861884 4.1355744783650094191e-20 -2.6482407448267591087e-06 703.85732557261610509 1.0926812539982549342e-20
Block5 134.45729969037770957 6.4468256049715512144e-20 -2.3117740604696907887e-21 4.4650844346063977936e-20 4.2339070285594290157e-20 1.534250887677947296e-08 4.1569823316347648539e-05 4.4071437808011874892e-05 6.4461395715967305754e-20 -1.5341992679360796695e-06 696.27808248400219782 4.2331359416581360877e-20 -2.3324739631707540105e-06 696.30444359054274628 1.2023405187072853083e-20
Ave_blocks 134.39737118287993667 6.3001591697893069622e-20 -2.4506516531919703651e-21 4.4649408543114997002e-20 4.2198756889923033783e-20 1.5650443490095510016e-08 1.2961406663186181477e-05 3.313708190523556984e-06 6.2963834617092185747e-20 -1.6000718173453754415e-06 689.97258178461493117 4.2176407689885204488e-20 -2.4013862673220515049e-06 689.95158609966370022 1.1722612322710875132e-20
Stdev_blocks 0.08105373742274876725 1.7660234166433713942e-21 4.1981319218076713341e-22 9.5797361613590446799e-24 4.1641282995840154765e-22 4.9471936559686704781e-10 9.7046984381163827371e-05 7.5010882077766570389e-05 1.7605472215837539901e-21 1.1104603058507543867e-07 10.743471487389935959 4.3758673754928878768e-22 1.320144734364096141e-07 10.773325037480901756 4.5734386416816414301e-22






