LAMMPS (28 Oct 2012)
Scanning data file ...
Reading data file ...
  orthogonal box = (0 0 0) to (100 100 100)
  2 by 2 by 2 MPI processor grid
  512 atoms
Finding 1-2 1-3 1-4 neighbors ...
  0 = max # of 1-2 neighbors
  0 = max # of 1-3 neighbors
  0 = max # of 1-4 neighbors
  1 = max # of special neighbors
WARNING: Resetting reneighboring criteria during minimization (min.cpp:173)
Setting up minimization ...
Memory usage per processor = 4.05499 Mbytes
Step Temp E_pair E_mol TotEng Press 
       0       320.15    1409.7233            0    1897.3739    434.80808 
     701       320.15   -217.27527            0    270.37527    22.063182 
Loop time of 0.0546004 on 8 procs for 701 steps with 512 atoms

Minimization stats:
  Stopping criterion = energy tolerance
  Energy initial, next-to-last, final = 
         1409.72334813     -217.256630745     -217.275265106
  Force two-norm initial, final = 5034.49 0.337455
  Force max component initial, final = 2457.89 0.147661
  Final line search alpha, max atom move = 0.254892 0.0376377
  Iterations, force evaluations = 701 710

Pair  time (%) = 0.00897908 (16.4451)
Bond  time (%) = 6.19888e-05 (0.113532)
Neigh time (%) = 0.00314346 (5.75721)
Comm  time (%) = 0.0214136 (39.2188)
Outpt time (%) = 0 (0)
Other time (%) = 0.0210023 (38.4654)

Nlocal:    64 ave 74 max 52 min
Histogram: 1 0 0 1 1 2 0 2 0 1
Nghost:    235.125 ave 266 max 224 min
Histogram: 4 0 2 0 0 1 0 0 0 1
Neighs:    316.25 ave 371 max 226 min
Histogram: 1 0 0 1 1 1 0 1 0 3

Total # of neighbors = 2530
Ave neighs/atom = 4.94141
Ave special neighs/atom = 0
Neighbor list builds = 60
Dangerous builds = 0
Setting up run ...
Memory usage per processor = 3.36354 Mbytes
Step Temp E_pair E_mol TotEng Press Volume 
     701       320.15   -217.27527            0    270.37527    22.063182      1000000 
 5000701    316.31571   -472.11011            0    9.7000519    468.89721    52674.226 
Loop time of 1573.64 on 8 procs for 5000000 steps with 512 atoms

Pair  time (%) = 872.425 (55.4398)
Bond  time (%) = 0.479918 (0.0304973)
Neigh time (%) = 31.9441 (2.02994)
Comm  time (%) = 506.056 (32.1582)
Outpt time (%) = 4.42564e-05 (2.81236e-06)
Other time (%) = 162.738 (10.3415)

Nlocal:    64 ave 71 max 59 min
Histogram: 1 1 2 1 1 0 0 0 0 2
Nghost:    1338.25 ave 1362 max 1310 min
Histogram: 1 1 0 1 0 1 0 2 0 2
Neighs:    6288.88 ave 7142 max 5904 min
Histogram: 3 2 1 0 0 0 0 0 0 2

Total # of neighbors = 50311
Ave neighs/atom = 98.2637
Ave special neighs/atom = 0
Neighbor list builds = 83008
Dangerous builds = 11
Setting up run ...
Memory usage per processor = 3.96774 Mbytes
Step Press Volume Temp PotEng KinEng TotEng Enthalpy E_vdwl E_coul E_tail E_long E_bond E_angle E_dihed E_impro E_mol 
10000000    468.89721    52674.226    316.31571   -472.11011    481.81016    9.7000519    369.90668   -472.11011            0   -9.9420454            0            0            0            0            0            0 
10001000    458.53019    56406.184    328.10974   -440.54051    499.77477    59.234261    436.43327   -440.54051            0   -9.2842577            0            0            0            0            0            0 
10002000    528.27673    51044.082    312.30686   -483.62483    475.70391   -7.9209161    385.34179   -483.62483            0   -10.259554            0            0            0            0            0            0 
10003000    468.29961    54291.122    329.63831   -465.60537    502.10308    36.497705    407.28812   -465.60537            0   -9.6459518            0            0            0            0            0            0 
10004000    516.96737     51924.61    312.00071   -482.11258    475.23759   -6.8749912    384.60743   -482.11258            0   -10.085575            0            0            0            0            0            0 
10005000    612.86928    53146.633    329.96884   -456.54289    502.60654    46.063645    521.09196   -456.54289            0   -9.8536731            0            0            0            0            0            0 
10006000    533.39368    52850.827    320.97312   -467.39437    488.90431    21.509943    432.63651   -467.39437            0   -9.9088241            0            0            0            0            0            0 
10007000    416.35547    53180.696    318.45052   -469.15997     485.0619    15.901927    338.82136   -469.15997            0   -9.8473616            0            0            0            0            0            0 
10008000    488.35292     50267.28    311.34546   -504.26554    474.23952   -30.026028     327.9839   -504.26554            0     -10.4181            0            0            0            0            0            0 
10009000    423.71951    53875.812    310.84849   -461.45723    473.48253    12.025308    344.95167   -461.45723            0   -9.7203091            0            0            0            0            0            0 
10010000    413.28822    56734.557    317.53663   -443.82402    483.66986    39.845842    381.80685   -443.82402            0   -9.2305215            0            0            0            0            0            0 
10011000     439.6495    53310.239    323.11049   -475.21498    492.15993    16.944953    358.76152   -475.21498            0   -9.8234327            0            0            0            0            0            0 
10012000    566.51043    50748.911    320.97487   -476.89882    488.90698    12.008152    431.29431   -476.89882            0   -10.319227            0            0            0            0            0            0 
10013000    569.34043    52449.565    332.82203   -467.53213     506.9525     39.42037    474.92202   -467.53213            0   -9.9846309            0            0            0            0            0            0 
10014000     391.4788    56117.119    317.78413   -449.04793    484.04686    34.998924    355.38934   -449.04793            0   -9.3320818            0            0            0            0            0            0 
10015000     503.3554    53344.834    322.70604   -471.32763    491.54388    20.216247    411.81652   -471.32763            0   -9.8170621            0            0            0            0            0            0 
10016000    397.10976    53343.743      321.834   -474.08627    490.21559    16.129329    325.06633   -474.08627            0   -9.8172629            0            0            0            0            0            0 
10017000    448.08326    53000.504    329.66704   -475.75573    502.14684    26.391114    372.74065   -475.75573            0   -9.8808409            0            0            0            0            0            0 
10018000    647.76672    53405.944    327.20304   -442.13515    498.39368    56.258538    560.78519   -442.13515            0   -9.8058289            0            0            0            0            0            0 
10019000     680.3899    52338.693    333.73064   -457.29236    508.33649    51.044133    570.38992   -457.29236            0   -10.005782            0            0            0            0            0            0 
10020000    561.55415     52571.29     316.8099   -475.60402    482.56291    6.9588933    437.50153   -475.60402            0   -9.9615121            0            0            0            0            0            0 
10021000    436.01103    54746.242    309.83114   -455.04131    471.93291    16.891601    365.01056   -455.04131            0   -9.5657624            0            0            0            0            0            0 
10022000    512.72765      53028.7    308.76211   -462.78064    470.30458    7.5239361    404.05171   -462.78064            0   -9.8755872            0            0            0            0            0            0 
10023000    391.80881    54064.492    324.80122   -463.55079    494.73525    31.184458    340.11597   -463.55079            0   -9.6863862            0            0            0            0            0            0 
10024000    658.57015    54298.332    305.97074   -438.00698    466.05277    28.045798    549.55793   -438.00698            0    -9.644671            0            0            0            0            0            0 
10025000    463.97783    52548.264    335.28641   -482.34365    510.70623    28.362583     383.9378   -482.34365            0   -9.9658772            0            0            0            0            0            0 
10026000    447.67003    55012.086    325.53826   -452.25929     495.8579    43.598607    402.76196   -452.25929            0   -9.5195363            0            0            0            0            0            0 
10027000    442.53641    55035.761    312.16117   -451.93491    475.48199    23.547089    378.74457   -451.93491            0   -9.5154412            0            0            0            0            0            0 
10028000    520.15514     50816.88    308.55267   -492.19119    469.98555   -22.205645    363.28761   -492.19119            0   -10.305425            0            0            0            0            0            0 
10029000    440.08069    52662.113     299.0685   -472.11261    455.53932   -16.573284    321.41876   -472.11261            0   -9.9443323            0            0            0            0            0            0 
10030000    534.65581    53129.737    313.70735   -466.54546    477.83714     11.29168    425.56584   -466.54546            0   -9.8568067            0            0            0            0            0            0 
10031000    603.99723    52796.642    320.59089    -461.0703     488.3221    27.251798    492.32052    -461.0703            0   -9.9189935            0            0            0            0            0            0 
10032000    649.52487    51233.372    346.90158   -475.98966    528.39838    52.408718    537.72472   -475.98966            0   -10.221649            0            0            0            0            0            0 
10033000    485.99014    53955.152    326.42986   -470.18337    497.21598    27.032617     409.4488   -470.18337            0   -9.7060156            0            0            0            0            0            0 
10034000    455.03775     51809.68    313.74989    -485.7709    477.90193   -7.8689738    335.95347    -485.7709            0   -10.107948            0            0            0            0            0            0 
10035000    386.93578    53118.133    324.86546   -471.66005     494.8331    23.173059    322.92195   -471.66005            0   -9.8589599            0            0            0            0            0            0 
10036000    419.09167    55511.508    314.92623   -448.36538    479.69372    31.328345     370.6159   -448.36538            0   -9.4338916            0            0            0            0            0            0 
10037000    347.45389    52793.056      327.331   -490.00927     498.5886    8.5793232    276.09539   -490.00927            0   -9.9196671            0            0            0            0            0            0 
10038000    414.18718    53864.017    317.32123   -463.88721    483.34177    19.454555    344.81989   -463.88721            0   -9.7224376            0            0            0            0            0            0 
10039000    468.73804    53177.745    321.94064   -477.27773    490.37803    13.100295    376.62674   -477.27773            0    -9.847908            0            0            0            0            0            0 
10040000    395.10627    53251.347    303.39443   -477.91835    462.12855     -15.7898    291.05615   -477.91835            0   -9.8342967            0            0            0            0            0            0 
10041000     543.8779    51877.006    308.79276   -467.56631    470.35125    2.7849479    414.26824   -467.56631            0    -10.09483            0            0            0            0            0            0 
10042000    489.76535    54103.639    298.64686   -453.69052    454.89708    1.2065616    387.65399   -453.69052            0   -9.6793775            0            0            0            0            0            0 
10043000    480.65975    52535.575    329.13886   -469.92318    501.34231    31.419129     399.6898   -469.92318            0   -9.9682842            0            0            0            0            0            0 
10044000    497.91435    54577.142     341.7133   -455.10049    520.49562    65.395133    461.71087   -455.10049            0   -9.5954007            0            0            0            0            0            0 
10045000    491.44109     52612.79    314.78642    -472.1326    479.48076    7.3481633    384.43267    -472.1326            0   -9.9536546            0            0            0            0            0            0 
10046000    504.79893    52452.415    308.69479   -466.48144    470.20203    3.7205889    389.87394   -466.48144            0   -9.9840883            0            0            0            0            0            0 
10047000    508.44958    53202.156    291.13827   -458.50338    443.46005   -15.043328    379.46213   -458.50338            0   -9.8433895            0            0            0            0            0            0 
10048000    493.50907    52560.314     328.4225    -474.0883    500.25116     26.16286    404.45645    -474.0883            0   -9.9635923            0            0            0            0            0            0 
10049000    470.76872    56087.902    329.82679   -441.96315    502.39017    60.427017    445.50855   -441.96315            0   -9.3369429            0            0            0            0            0            0 
10050000    474.71329    54150.741    328.63985    -458.5671    500.58223    42.015122    416.91187    -458.5671            0   -9.6709581            0            0            0            0            0            0 
10051000    504.27839    50769.017    311.53807   -493.26792     474.5329   -18.735013    354.63978   -493.26792            0   -10.315141            0            0            0            0            0            0 
10052000     622.5214     54399.53    329.06966   -438.01808    501.23691    63.218825    557.10324   -438.01808            0   -9.6267292            0            0            0            0            0            0 
10053000    430.54611    56411.516    342.64232   -447.75375     521.9107    74.156949      428.369   -447.75375            0   -9.2833801            0            0            0            0            0            0 
10054000     432.2112    53357.871    350.01757   -483.12035    533.14463     50.02428    386.35799   -483.12035            0   -9.8146635            0            0            0            0            0            0 
10055000    402.38464    50836.241    311.42136   -500.16692    474.35513    -25.81179    272.51395   -500.16692            0     -10.3015            0            0            0            0            0            0 
10056000    513.69496    54339.885    320.70378   -451.55124    488.49406    36.942817    444.04169   -451.55124            0   -9.6372959            0            0            0            0            0            0 
10057000    453.27923    50917.581    317.57303   -501.89474    483.72531   -18.169436    318.42697   -501.89474            0   -10.285044            0            0            0            0            0            0 
10058000    390.18557    55183.858    303.43827    -451.7634    462.19534    10.431936    324.45327    -451.7634            0   -9.4899046            0            0            0            0            0            0 
10059000    471.86162    53819.017    307.10643     -458.442    467.78265    9.3406515    379.70255     -458.442            0   -9.7305669            0            0            0            0            0            0 
10060000    492.76747    55289.094    333.25423   -443.77591    507.61082    63.834904    461.17043   -443.77591            0   -9.4718416            0            0            0            0            0            0 
10061000    534.34554    53418.821    303.40056   -454.77402     462.1379    7.3638758    423.65043   -454.77402            0   -9.8034651            0            0            0            0            0            0 
10062000    460.55873    54799.783     320.4156    -437.4424    488.05509    50.612697     418.6906    -437.4424            0   -9.5564164            0            0            0            0            0            0 
10063000    481.30085    53392.625    328.52442   -468.82431    500.40641    31.582094    406.35984   -468.82431            0   -9.8082749            0            0            0            0            0            0 
10064000    451.25042    56007.715    341.47505   -436.06959    520.13273    84.063134    452.65128   -436.06959            0   -9.3503108            0            0            0            0            0            0 
10065000    460.87749    50831.947    305.14556    -501.0488    464.79586   -36.252936     305.4102    -501.0488            0    -10.30237            0            0            0            0            0            0 
10066000    509.45355    53619.597    321.35225   -458.05906    489.48181     31.42275    429.80872   -458.05906            0   -9.7667564            0            0            0            0            0            0 
10067000    548.53937    52139.142    312.25743   -471.48759    475.62862    4.1410242    421.24812   -471.48759            0   -10.044077            0            0            0            0            0            0 
10068000    475.17386    52594.386    329.91711   -475.47497    502.52775    27.052777    391.52784   -475.47497            0   -9.9571378            0            0            0            0            0            0 
10069000    487.57903    52008.115    307.18479   -487.17236    467.90202   -19.270341    350.55105   -487.17236            0   -10.069381            0            0            0            0            0            0 
10070000    421.30451    54625.785    320.99227   -459.48218    488.93348    29.451299    365.08818   -459.48218            0   -9.5868562            0            0            0            0            0            0 
10071000    500.87915    52966.691    323.98893    -465.5994    493.49798    27.898576    414.81012    -465.5994            0   -9.8871487            0            0            0            0            0            0 
10072000    504.48125    54284.704    314.34989   -454.57354    478.81585    24.242313    423.63342   -454.57354            0   -9.6470923            0            0            0            0            0            0 
10073000     483.6345    52946.422     319.9375   -470.58909    487.32687     16.73778    390.18547   -470.58909            0   -9.8909337            0            0            0            0            0            0 
10074000    549.02862    52556.833    347.64468   -474.19914    529.53027    55.331132    476.15471   -474.19914            0   -9.9642523            0            0            0            0            0            0 
10075000     423.8989    51097.672    329.91313   -501.53067    502.52168   0.99101132     316.8835   -501.53067            0   -10.248795            0            0            0            0            0            0 
10076000    390.57692    53979.549    297.09891   -467.90194    452.53925   -15.362683    292.11366   -467.90194            0   -9.7016288            0            0            0            0            0            0 
10077000      394.691    55736.989    324.07171   -455.55493    493.62406     38.06913    358.90035   -455.55493            0   -9.3957272            0            0            0            0            0            0 
10078000    389.87035    53334.522    327.72283   -478.26332    499.18542    20.922095    324.17467   -478.26332            0   -9.8189602            0            0            0            0            0            0 
10079000    463.27767    51911.292    311.27132   -481.17629    474.12659   -7.0497053    343.68528   -481.17629            0   -10.088162            0            0            0            0            0            0 
10080000    385.48692    53874.805    308.89921   -468.49635     470.5134    2.0170483     304.8975   -468.49635            0   -9.7204907            0            0            0            0            0            0 
10081000    455.94223    53609.929    300.94694   -464.78364    458.40055   -6.3830867    350.09345   -464.78364            0   -9.7685177            0            0            0            0            0            0 
10082000    382.93149    52750.849    320.48736   -486.33702     488.1644    1.8273825     296.4231   -486.33702            0    -9.927604            0            0            0            0            0            0 
10083000    489.18256    53200.865    318.00089   -458.07049    484.37702    26.306536    405.85352   -458.07049            0   -9.8436284            0            0            0            0            0            0 
10084000    611.76487    50353.788    319.55197   -489.81016    486.73963   -3.0705318    446.18411   -489.81016            0   -10.400201            0            0            0            0            0            0 
10085000    440.24384     53170.01    327.95898   -474.75141    499.54513    24.793718    366.17202   -474.75141            0   -9.8493407            0            0            0            0            0            0 
10086000    534.96508    52493.398    338.25349   -467.94867    515.22566    47.276998    456.82613   -467.94867            0   -9.9762935            0            0            0            0            0            0 
10087000    584.67564    53678.961    338.32594   -442.51161    515.33602    72.824403    530.53924   -442.51161            0   -9.7559553            0            0            0            0            0            0 
10088000    493.74277    52226.372    326.29614   -478.06349     497.0123    18.948812    395.01691   -478.06349            0   -10.027301            0            0            0            0            0            0 
10089000    557.68936    54350.224    305.98257   -440.33195    466.07079    25.738839    467.78699   -440.33195            0   -9.6354625            0            0            0            0            0            0 
10090000    429.98852    56158.712    325.77398   -440.21576    496.21694    56.001182    408.16918   -440.21576            0   -9.3251702            0            0            0            0            0            0 
10091000    577.69709    51747.871     350.4129    -475.4326     533.7468    58.314206     494.2962    -475.4326            0   -10.120021            0            0            0            0            0            0 
10092000    531.01612    54852.291    332.44415   -445.67979    506.37692    60.697128    485.49113   -445.67979            0   -9.5472683            0            0            0            0            0            0 
10093000    453.63882     51395.05    318.24133   -488.82157    484.74326   -4.0783127    335.94399   -488.82157            0   -10.189494            0            0            0            0            0            0 
10094000    530.47766    54131.773    287.94111   -451.18967    438.59016   -12.599517    406.18946   -451.18967            0   -9.6743468            0            0            0            0            0            0 
10095000    475.76549    52448.501    317.47788   -477.85961    483.58039    5.7207736     369.6374   -477.85961            0   -9.9848335            0            0            0            0            0            0 
10096000    390.13991    54439.044    304.60182   -462.53803    463.96765    1.4296149    311.17636   -462.53803            0   -9.6197418            0            0            0            0            0            0 
10097000    550.10261    51190.557    312.42802   -483.25717    475.88846   -7.3687109    403.31687   -483.25717            0   -10.230198            0            0            0            0            0            0 
10098000    534.19784    53078.063     313.4055   -468.12914    477.37735     9.248206    422.76493   -468.12914            0   -9.8664027            0            0            0            0            0            0 
10099000    433.59137    54439.427    306.05766   -457.05545    466.18517    9.1297203    353.37664   -457.05545            0   -9.6196742            0            0            0            0            0            0 
10100000    444.54092    54769.482    300.48994   -450.44306    457.70446    7.2613969    362.34144   -450.44306            0   -9.5617035            0            0            0            0            0            0 
10101000    384.33173    52546.277    312.35511   -492.74889    475.77741   -16.971475    277.55482   -492.74889            0    -9.966254            0            0            0            0            0            0 
10102000    378.65912    53538.392    330.00976   -476.60277    502.66886    26.066098     321.7241   -476.60277            0   -9.7815702            0            0            0            0            0            0 
10103000    619.49183    51077.194    320.48247   -481.86575    488.15696    6.2912049    467.75592   -481.86575            0   -10.252904            0            0            0            0            0            0 
10104000    419.03611    53265.973    304.04513   -475.05576     463.1197   -11.936066    313.58358   -475.05576            0   -9.8315964            0            0            0            0            0            0 
10105000    614.12876    51071.569    322.74239   -477.60343    491.59926    13.995827    471.41517   -477.60343            0   -10.254033            0            0            0            0            0            0 
10106000    442.95166     55280.49       318.22   -442.29501    484.71078    42.415767    399.52749   -442.29501            0   -9.4733158            0            0            0            0            0            0 
10107000    438.75438    54578.278    329.94249   -460.19069     502.5664    42.375711    391.61025   -460.19069            0   -9.5952009            0            0            0            0            0            0 
10108000    551.30013    51364.745    316.17421   -481.11667    481.59464   0.47796333    413.45806   -481.11667            0   -10.195506            0            0            0            0            0            0 
10109000    506.10916    54148.151    313.76906   -454.14029    477.93113    23.790835    423.46283   -454.14029            0   -9.6714206            0            0            0            0            0            0 
10110000    635.93702    52022.025    315.32407   -463.30199    480.29972    16.997731    499.47544   -463.30199            0   -10.066689            0            0            0            0            0            0 
10111000    541.40433    51712.143    329.30749   -482.22911    501.59917    19.370056    427.68018   -482.22911            0   -10.127013            0            0            0            0            0            0 
10112000    293.19214    56095.687    318.43034   -454.77672    485.03116    30.254441    270.11436   -454.77672            0   -9.3356472            0            0            0            0            0            0 
10113000     409.4468    53131.621    309.73095    -477.3597    471.78031   -5.5793853    311.68873    -477.3597            0   -9.8564572            0            0            0            0            0            0 
10114000    436.06369    53806.536    311.01184   -463.42187    473.73135    10.309481    352.49438   -463.42187            0    -9.732824            0            0            0            0            0            0 
10115000    520.22035    52820.258    307.93024   -468.86453    469.03748   0.17295133    400.91392   -468.86453            0   -9.9145586            0            0            0            0            0            0 
10116000    469.91506    57823.026     317.3148   -428.07298    483.33199    55.259007    451.53345   -428.07298            0   -9.0567648            0            0            0            0            0            0 
10117000    391.71071    54032.199    300.08194   -466.31326    457.08299   -9.2302727    299.43941   -466.31326            0   -9.6921753            0            0            0            0            0            0 
10118000    418.38142    54064.618    314.18782   -461.66411    478.56898    16.904874      346.789   -461.66411            0   -9.6863636            0            0            0            0            0            0 
10119000    485.73805    57129.778     330.1956   -428.65097    502.95194    74.300975    479.00782   -428.65097            0   -9.1666652            0            0            0            0            0            0 
10120000    564.66269    51453.205    328.15618   -482.95108    499.84551     16.89443    440.61292   -482.95108            0   -10.177977            0            0            0            0            0            0 
10121000    479.01544    51729.545    323.77062   -493.26335    493.16544 -0.097908567    361.28205   -493.26335            0   -10.123606            0            0            0            0            0            0 
10122000    425.07292    53602.236    313.17338   -468.21232    477.02379    8.8114753    341.10527   -468.21232            0   -9.7699198            0            0            0            0            0            0 
10123000    478.55978    53699.323     328.8179   -465.64533    500.85343    35.208108    409.99198   -465.64533            0    -9.752256            0            0            0            0            0            0 
10124000    516.65419    52039.638    338.19769    -477.1908    515.14067    37.949871    430.06186    -477.1908            0   -10.063282            0            0            0            0            0            0 
10125000    447.45465    57564.501    300.18477   -424.81585    457.23962    32.423774    408.07055   -424.81585            0   -9.0974391            0            0            0            0            0            0 
10126000    560.18468    52300.502    327.08774    -471.0596    498.21806    27.158458    454.43886    -471.0596            0   -10.013088            0            0            0            0            0            0 
10127000    607.83324    52782.414     329.1972   -457.69309    501.43118    43.738087    511.63436   -457.69309            0   -9.9216673            0            0            0            0            0            0 
10128000    515.00937    50753.709    321.23837   -491.11703    489.30834   -1.8086893     379.3965   -491.11703            0   -10.318252            0            0            0            0            0            0 
10129000     492.9018    52255.372    315.92307     -475.205    481.21211     6.007114    381.64314     -475.205            0   -10.021736            0            0            0            0            0            0 
10130000    462.84999    53845.323    347.64409   -472.76939    529.52938    56.759989    420.22628   -472.76939            0    -9.725813            0            0            0            0            0            0 
10131000    486.91762    53675.755    302.76267   -458.79107    461.16627    2.3751971    383.53715   -458.79107            0    -9.756538            0            0            0            0            0            0 
10132000    452.36162    53772.843    309.39722   -460.70305    471.27197    10.568918    365.32075   -460.70305            0   -9.7389223            0            0            0            0            0            0 
10133000    378.82728    52425.966    317.09361   -484.16037    482.99507      -1.1653    288.47806   -484.16037            0   -9.9891253            0            0            0            0            0            0 
10134000    286.49951    55516.461    317.50436     -454.973    483.62072    28.647722    260.61223     -454.973            0   -9.4330498            0            0            0            0            0            0 
10135000    580.76952    54239.716    321.02547   -447.12967    488.98405    41.854375    501.26085   -447.12967            0   -9.6550938            0            0            0            0            0            0 
10136000    428.61956    54279.899    342.79409   -461.10527    522.14189    61.036617      400.339   -461.10527            0   -9.6479462            0            0            0            0            0            0 
10137000    391.52021    53507.248    306.80977   -481.45691    467.33078   -14.126128    291.39601   -481.45691            0   -9.7872637            0            0            0            0            0            0 
10138000     440.0741    55545.876    304.11478   -447.12406    463.22579    16.101729    372.59679   -447.12406            0   -9.4280545            0            0            0            0            0            0 
10139000    656.34895    52403.208    326.46185    -453.0007    497.26471    44.264012    545.87675    -453.0007            0   -9.9934635            0            0            0            0            0            0 
10140000    474.20009    53070.586    330.55974   -467.82285    503.50659    35.683741    402.70516   -467.82285            0   -9.8677927            0            0            0            0            0            0 
10141000    505.57449    53550.872    337.37246   -465.08452    513.88369    48.799168    443.64503   -465.08452            0   -9.7792906            0            0            0            0            0            0 
10142000    527.87752    53730.692    312.92196   -453.45523    476.64083    23.185602    436.83414   -453.45523            0   -9.7465624            0            0            0            0            0            0 
10143000    529.65606    53258.633    320.71429   -465.09569    488.51005    23.414368    434.81016   -465.09569            0   -9.8329513            0            0            0            0            0            0 
10144000    477.66078    53201.322      326.404   -471.72842     497.1766    25.448184    396.05883   -471.72842            0   -9.8435439            0            0            0            0            0            0 
10145000    549.50669    52435.432    312.83271    -462.7695    476.50488     13.73538    433.95248    -462.7695            0   -9.9873221            0            0            0            0            0            0 
10146000    613.11116    54359.049    320.59989   -444.99054    488.33581    43.345271    529.40201   -444.99054            0   -9.6338981            0            0            0            0            0            0 
10147000    480.59407     53131.34    314.30793   -462.14176    478.75193     16.61017    389.00622   -462.14176            0   -9.8565092            0            0            0            0            0            0 
10148000     479.1213    52142.503    321.54335    -481.4298    489.77288    8.3430799    372.68844    -481.4298            0   -10.043429            0            0            0            0            0            0 
10149000    498.79986    54125.609    326.49917   -459.89935    497.32155    37.422207     431.1581   -459.89935            0   -9.6754486            0            0            0            0            0            0 
10150000    530.57665    52449.748    327.83456   -472.29695    499.35562    27.058666    432.91043   -472.29695            0    -9.984596            0            0            0            0            0            0 
10151000    468.06523    53435.804     329.6286   -461.55779    502.08829    40.530501    405.29673   -461.55779            0   -9.8003492            0            0            0            0            0            0 
10152000    567.84316    51459.227    309.56616   -474.36988     471.5293    -2.840579    423.31438   -474.36988            0   -10.176786            0            0            0            0            0            0 
10153000    456.38823    54374.784    314.66428   -456.10692    479.29472    23.187802    385.10387   -456.10692            0   -9.6311104            0            0            0            0            0            0 
10154000    551.78444    53028.833    323.83453   -463.81417    493.26279     29.44862    456.18278   -463.81417            0   -9.8755623            0            0            0            0            0            0 
10155000     496.4818    53070.136    330.90116   -459.93233    504.02664    44.094312    428.35806   -459.93233            0   -9.8678765            0            0            0            0            0            0 
10156000    479.66185    52351.555    294.62142   -474.79751    448.76556   -26.031955    340.18686   -474.79751            0   -10.003324            0            0            0            0            0            0 
10157000    441.32064    53114.862    325.74722   -478.52225    496.17619    17.653938    359.51228   -478.52225            0   -9.8595672            0            0            0            0            0            0 
10158000    604.24513    52208.962    331.10317   -464.07069    504.33434    40.263648    500.34444   -464.07069            0   -10.030645            0            0            0            0            0            0 
10159000      657.032    50004.014    324.38479     -489.671    494.10094     4.429938    483.57529     -489.671            0    -10.47295            0            0            0            0            0            0 
10160000    360.30917    56268.591    320.13522   -448.36579    487.62802    39.262234    334.93903   -448.36579            0   -9.3069603            0            0            0            0            0            0 
10161000    537.99972    53381.381    319.23047   -457.39101    486.24991    28.858899     447.6985   -457.39101            0   -9.8103409            0            0            0            0            0            0 
10162000    458.61349    54002.442    332.04307   -460.24324    505.76599    45.522746    406.71308   -460.24324            0    -9.697516            0            0            0            0            0            0 
10163000    543.21943     55834.56    317.49285    -427.7712    483.60318    55.831983    498.17002    -427.7712            0   -9.3793081            0            0            0            0            0            0 
10164000    544.44589     54216.36    321.34328   -449.61554    489.46814    39.852605    470.34052   -449.61554            0   -9.6592531            0            0            0            0            0            0 
10165000    531.59726    53395.317     350.5154   -469.88961    533.90293    64.013325    477.97658   -469.88961            0   -9.8077805            0            0            0            0            0            0 
10166000    485.92057    53578.292    314.38001   -461.88493    478.86173    16.976797    396.66757   -461.88493            0   -9.7742859            0            0            0            0            0            0 
10167000    430.71429    54495.302    325.25656   -461.30422    495.42881    34.124592    376.43826   -461.30422            0   -9.6098108            0            0            0            0            0            0 
10168000    407.58425    53759.067    316.61657   -465.08972    482.26844    17.178714    336.73326   -465.08972            0   -9.7414181            0            0            0            0            0            0 
10169000     405.9794    52634.603    337.48324    -481.4266    514.05242    32.625817    344.26441    -481.4266            0   -9.9495296            0            0            0            0            0            0 
10170000    526.70569    53307.307    331.89441   -466.44834    505.53956     39.09122    448.56928   -466.44834            0   -9.8239731            0            0            0            0            0            0 
10171000    479.33629    53576.935    296.82181   -456.11917    452.11718   -4.0019956    370.53443   -456.11917            0   -9.7745335            0            0            0            0            0            0 
10172000    455.13696    52589.768    310.49611   -479.09683    472.94579   -6.1510378    342.92436   -479.09683            0   -9.9580121            0            0            0            0            0            0 
10173000    505.24612    54875.565    332.86831    -450.7208    507.02299    56.302188    460.65259    -450.7208            0   -9.5432192            0            0            0            0            0            0 
10174000    578.05709    54273.892    328.87922   -448.80937    500.94683    52.137459    509.68643   -448.80937            0   -9.6490141            0            0            0            0            0            0 
10175000    444.74403     53896.62    315.49081   -467.81837    480.55369    12.735319     362.3161   -467.81837            0   -9.7165564            0            0            0            0            0            0 
10176000    440.84687    54635.213    316.08598   -451.36316    481.46024    30.097084    381.36323   -451.36316            0   -9.5852018            0            0            0            0            0            0 
10177000    480.39991    53808.409    319.24544   -458.23629    486.27272    28.036433    405.02568   -458.23629            0   -9.7324853            0            0            0            0            0            0 
10178000    419.52794    50706.617    303.26933   -502.22788      461.938   -40.289875    269.95271   -502.22788            0   -10.327835            0            0            0            0            0            0 
10179000    481.31409     55057.12    326.19182   -443.12977     496.8534    53.723622    440.19555   -443.12977            0   -9.5117497            0            0            0            0            0            0 
10180000    483.06937    52093.971    310.67683   -471.80213    473.22107     1.418934    368.42467   -471.80213            0   -10.052786            0            0            0            0            0            0 
10181000    617.71204    52325.485    312.95218   -463.01727    476.68686    13.669584      485.054   -463.01727            0   -10.008308            0            0            0            0            0            0 
10182000    531.33266    53091.594    316.49974   -459.07156    482.09049    23.018924     434.4226   -459.07156            0   -9.8638881            0            0            0            0            0            0 
10183000    549.79349    52122.528    327.37979   -469.59329    498.66292    29.069631    446.99714   -469.59329            0   -10.047278            0            0            0            0            0            0 
10184000    406.62598    55129.509    295.71231   -459.41504    450.42719   -8.9878454    317.94243   -459.41504            0   -9.4992601            0            0            0            0            0            0 
10185000    529.46946    51349.223     311.2912   -482.31142    474.15687   -8.1545444    388.35229   -482.31142            0   -10.198588            0            0            0            0            0            0 
10186000    447.16544    53816.673    329.30723    -462.7096    501.59878    38.889185    389.85188    -462.7096            0   -9.7309907            0            0            0            0            0            0 
10187000    424.30189    53630.534    344.29033    -467.1172    524.42094    57.303743    389.16991    -467.1172            0   -9.7647647            0            0            0            0            0            0 
10188000    422.69531    56084.855    324.70831   -442.57597    494.59374    52.017768     397.7572   -442.57597            0   -9.3374504            0            0            0            0            0            0 
10189000    417.39958    52754.417    307.47663   -475.11395    468.34653   -6.7674181     314.3669   -475.11395            0   -9.9269327            0            0            0            0            0            0 
10190000    555.58182    52820.443    333.65815   -461.70563    508.22607    46.520441    474.50288   -461.70563            0   -9.9145239            0            0            0            0            0            0 
10191000    442.21948    55154.347    321.97456   -450.44743    490.42969    39.982261    395.69015   -450.44743            0   -9.4949823            0            0            0            0            0            0 
10192000    502.40499    51104.361    317.96474   -485.68291    484.32197   -1.3609392    373.08386   -485.68291            0   -10.247453            0            0            0            0            0            0 
10193000    498.95653    52928.145    339.41737   -468.26672    516.99848    48.731759    433.87766   -468.26672            0    -9.894349            0            0            0            0            0            0 
10194000    402.29532    53694.506    312.37281   -473.05982    475.80437    2.7445483    317.77369   -473.05982            0   -9.7531309            0            0            0            0            0            0 
10195000    532.85281    53862.244    322.82376   -450.36641     491.7232    41.356792     459.9263   -450.36641            0   -9.7227577            0            0            0            0            0            0 
10196000    512.91444    53519.917    332.07791   -452.04615    505.81906    53.772907     454.1196   -452.04615            0   -9.7849469            0            0            0            0            0            0 
10197000     500.5507    52642.366    313.74164   -473.70464    477.88936    4.1847176    388.47496   -473.70464            0   -9.9480625            0            0            0            0            0            0 
10198000    571.12242    52189.674    319.51331   -473.16595    486.68073    13.514783    448.21483   -473.16595            0   -10.034352            0            0            0            0            0            0 
10199000    475.50433    53806.827    333.39145   -461.34744    507.81984    46.472397    419.60891   -461.34744            0   -9.7327714            0            0            0            0            0            0 
10200000    522.23324    52508.189    347.30895   -471.03051    529.01889    57.988382    457.90315   -471.03051            0   -9.9734833            0            0            0            0            0            0 
10201000    419.54238    52850.586    336.86497    -485.0145    513.11068    28.096189    351.46753    -485.0145            0   -9.9088692            0            0            0            0            0            0 
10202000    429.04529    53427.577    317.42787    -468.2155    483.50421    15.288711    349.59497    -468.2155            0   -9.8018584            0            0            0            0            0            0 
10203000    473.85983    56719.911    330.50668   -438.18448    503.42578    65.241301    457.21897   -438.18448            0    -9.232905            0            0            0            0            0            0 
10204000    509.21791    52273.045    319.81706   -477.82695    487.14341    9.3164574     397.5181   -477.82695            0   -10.018348            0            0            0            0            0            0 
10205000    474.10549    52121.185    330.79195   -487.82648    503.86029    16.033808    376.41752   -487.82648            0   -10.047537            0            0            0            0            0            0 
10206000    472.85389    54310.777    315.82081   -452.99097    481.05635    28.065381    402.59733   -452.99097            0    -9.642461            0            0            0            0            0            0 
10207000    449.42279    54480.489    325.29145   -459.20431    495.48196     36.27765    393.36296   -459.20431            0   -9.6124238            0            0            0            0            0            0 
10208000    538.21157    53884.246    317.83917    -455.1018    484.13069    29.028892    451.98055    -455.1018            0   -9.7187877            0            0            0            0            0            0 
10209000    518.24162    52871.301    320.60821   -468.49267    488.34847    19.855806    419.45829   -468.49267            0   -9.9049869            0            0            0            0            0            0 
10210000    411.19337    54645.831    291.00347   -462.33305    443.25472   -19.078337    308.62362   -462.33305            0   -9.5833395            0            0            0            0            0            0 
10211000    512.93782    52536.106    333.54481    -481.6652    508.05343    26.388232     419.3936    -481.6652            0   -9.9681836            0            0            0            0            0            0 
10212000    529.12066    51296.535    344.41207   -482.57906    524.60637    42.027316    437.86637   -482.57906            0   -10.209063            0            0            0            0            0            0 
10213000    454.20387    54261.887    323.44569   -463.48752    492.67051    29.182992    388.61902   -463.48752            0   -9.6511489            0            0            0            0            0            0 
10214000    439.27784     52418.03    327.76799   -474.80958    499.25421    24.444634    360.25638   -474.80958            0   -9.9906376            0            0            0            0            0            0 
10215000    469.69263    54680.548    322.83636   -457.65546    491.74239    34.086932    408.64787   -457.65546            0   -9.5772549            0            0            0            0            0            0 
10216000    598.65674    55308.804    330.55381   -436.81889    503.49756    66.678676    549.56848   -436.81889            0   -9.4684662            0            0            0            0            0            0 
10217000    533.35668    51249.098    314.31782   -478.69445    478.76699  0.072544742    398.71161   -478.69445            0   -10.218512            0            0            0            0            0            0 
10218000    449.24234    53432.808    309.60587    -464.2306    471.58979    7.3591871    357.43699    -464.2306            0   -9.8008988            0            0            0            0            0            0 
10219000    504.80625    53275.604    312.19927    -466.4344    475.54004    9.1056406    401.32497    -466.4344            0   -9.8298191            0            0            0            0            0            0 
10220000    439.68541     55044.17    308.43947   -448.42067    469.81314    21.392466    374.35554   -448.42067            0   -9.5139874            0            0            0            0            0            0 
10221000    521.39488    52758.979    316.50648   -464.63141    482.10076    17.469343    418.64912   -464.63141            0   -9.9260744            0            0            0            0            0            0 
10222000    353.91374    53539.094    321.59427   -481.58298    489.85044    8.2674602    284.60783   -481.58298            0    -9.781442            0            0            0            0            0            0 
10223000    432.09389    53679.142    308.92593   -473.04496    470.55411   -2.4908499    335.77611   -473.04496            0   -9.7559225            0            0            0            0            0            0 
10224000    561.67725     52859.75    319.40645   -466.19026    486.51797    20.327708    453.32764   -466.19026            0   -9.9071513            0            0            0            0            0            0 
10225000    488.90722    52685.693    340.64555   -476.79684    518.86923    42.072397    417.73247   -476.79684            0   -9.9398815            0            0            0            0            0            0 
10226000    649.08052    52079.066    334.86614    -462.0648    510.06608    48.001284    540.99077    -462.0648            0   -10.055663            0            0            0            0            0            0 
10227000    473.30425     55476.45    310.31109   -440.72767    472.66396    31.936293     414.8712   -440.72767            0   -9.4398532            0            0            0            0            0            0 
10228000     564.2552    52436.229    309.27423   -462.63079    471.08463    8.4538416    439.95594   -462.63079            0   -9.9871703            0            0            0            0            0            0 
10229000    581.82265    50982.124    318.28437   -471.08199    484.80883    13.726843    446.32477   -471.08199            0   -10.272023            0            0            0            0            0            0 
10230000    479.46201     55282.82    312.95712   -443.44348    476.69439    33.250909     419.8139   -443.44348            0   -9.4729167            0            0            0            0            0            0 
10231000    452.68529    50682.072    325.12617    -501.3227    495.23021   -6.0924955    328.50804    -501.3227            0   -10.332836            0            0            0            0            0            0 
10232000    464.41163    53019.659     318.8746   -466.33153    485.70786    19.376331    378.47675   -466.33153            0    -9.877271            0            0            0            0            0            0 
10233000     486.6713    52609.729    310.90744   -466.53294    473.57233    7.0393939     380.4423   -466.53294            0   -9.9542339            0            0            0            0            0            0 
10234000    411.36953    50928.383    312.04341   -497.79445    475.30263   -22.491816    283.04806   -497.79445            0   -10.282862            0            0            0            0            0            0 
10235000    557.84918    53064.682    319.38071   -463.97057    486.47876    22.508184    454.22429   -463.97057            0   -9.8688906            0            0            0            0            0            0 
10236000    517.95689    52562.517    323.38197    -470.9266    492.57346     21.64686    418.69728    -470.9266            0   -9.9631747            0            0            0            0            0            0 
10237000     528.8286    51422.842    326.91156   -484.16292     497.9497     13.78678    410.38147   -484.16292            0   -10.183987            0            0            0            0            0            0 
10238000    505.56361    52406.574    328.13216   -474.28231    499.80891    25.526596    411.92691   -474.28231            0   -9.9928215            0            0            0            0            0            0 
10239000    678.45674    49986.025    316.44256   -476.15755    482.00339    5.8458397    500.43734   -476.15755            0   -10.476719            0            0            0            0            0            0 
10240000     464.8779    54318.416    320.47498   -452.95549    488.14555    35.190053    403.45628   -452.95549            0   -9.6411048            0            0            0            0            0            0 
10241000    578.33486    52466.443    325.55691    -469.1216    495.88631    26.764709    469.28876    -469.1216            0   -9.9814188            0            0            0            0            0            0 
10242000    485.81291    49726.347    322.10309   -505.49532    490.62547   -14.869855    337.44544   -505.49532            0    -10.53143            0            0            0            0            0            0 
10243000    510.87532    53119.873    340.42768   -470.30957    518.53738     48.22781    444.00234   -470.30957            0    -9.858637            0            0            0            0            0            0 
10244000    623.12931    52845.554      337.044   -461.56081    513.38338    51.822569    532.06721   -461.56081            0   -9.9098127            0            0            0            0            0            0 
10245000    354.04739    52622.128    318.46449    -485.7971    485.08319  -0.71391077    270.99613    -485.7971            0   -9.9518884            0            0            0            0            0            0 
10246000    301.33344    57569.208     305.3667   -446.02906    465.13271    19.103645    272.09954   -446.02906            0   -9.0966953            0            0            0            0            0            0 
10247000     510.7248    52810.095    326.34513   -463.75735    497.08693    33.329582    426.68015   -463.75735            0   -9.9164667            0            0            0            0            0            0 
10248000    575.16344    53344.039    330.46888   -463.91945    503.36819    39.448743    486.90755   -463.91945            0   -9.8172083            0            0            0            0            0            0 
10249000    516.70115     51725.79    324.72976   -487.33986     494.6264    7.2865318    397.06913   -487.33986            0   -10.124341            0            0            0            0            0            0 
10250000    393.20857     54300.05    309.06669   -462.57272    470.76851    8.1957978     319.5818   -462.57272            0   -9.6443658            0            0            0            0            0            0 
10251000    483.30021    53478.899    334.84792   -473.53618    510.03833    36.502144    413.44484   -473.53618            0   -9.7924519            0            0            0            0            0            0 
10252000    535.33094    49450.737    339.52182   -510.81547    517.15757    6.3421038     392.4165   -510.81547            0   -10.590126            0            0            0            0            0            0 
10253000    459.51117    54545.267    298.65159   -449.09403    454.90429    5.8102675    371.34532   -449.09403            0   -9.6010081            0            0            0            0            0            0 
10254000    554.98925     51973.53    331.61923    -478.0346     505.1204    27.085802     447.7569    -478.0346            0   -10.076082            0            0            0            0            0            0 
10255000    492.42507     54586.59    330.73448   -455.81435    503.77275    47.958404    439.97279   -455.81435            0   -9.5937399            0            0            0            0            0            0 
10256000    490.67556    54530.419    313.06325   -453.11701    476.85605    23.739036     413.9587   -453.11701            0   -9.6036222            0            0            0            0            0            0 
10257000    481.59404    55131.098    301.94042   -440.38502    459.91382      19.5288     406.7451   -440.38502            0   -9.4989863            0            0            0            0            0            0 
10258000    486.82335    53756.449    319.00872    -456.7177    485.91214    29.194442    410.85551    -456.7177            0   -9.7418925            0            0            0            0            0            0 
10259000    520.20108     51695.69    341.58347    -479.4128    520.29787    40.885072    433.07955    -479.4128            0   -10.130236            0            0            0            0            0            0 
10260000    619.84848     53053.55    320.22857   -452.44765    487.77022    35.322565    514.91892   -452.44765            0   -9.8709615            0            0            0            0            0            0 
10261000    640.26731    51240.866    324.80487   -473.38983    494.74081    21.350981    499.81984   -473.38983            0   -10.220154            0            0            0            0            0            0 
10262000     532.3199    51762.972    335.00036   -477.51587    510.27052    32.754648    434.60818   -477.51587            0   -10.117069            0            0            0            0            0            0 
10263000    470.58521     56450.82    319.17828    -429.1359    486.17042     57.03452    444.45664    -429.1359            0   -9.2769165            0            0            0            0            0            0 
10264000    435.00761    53643.895    312.16493   -467.98391    475.48772    7.5038138    347.82818   -467.98391            0   -9.7623327            0            0            0            0            0            0 
10265000    389.74824    55873.638    302.45676   -449.63211     460.7003    11.068183    328.65832   -449.63211            0   -9.3727482            0            0            0            0            0            0 
10266000    598.64073    52680.063    327.94277   -457.46068    499.52044    42.059757    501.98626   -457.46068            0   -9.9409439            0            0            0            0            0            0 
10267000    438.36527    53652.416     303.0785   -463.91391    461.64734    -2.266576    340.73911   -463.91391            0   -9.7607821            0            0            0            0            0            0 
10268000    456.56079    55455.842    319.45379   -448.69699    486.59007     37.89308    407.14419   -448.69699            0   -9.4433612            0            0            0            0            0            0 
10269000    558.44103    51597.135    326.19354   -481.92613    496.85602    14.929887     435.1519   -481.92613            0   -10.149586            0            0            0            0            0            0 
10270000    450.48888    53368.234    308.95947   -462.79439    470.60519    7.8107999    358.43573   -462.79439            0   -9.8127576            0            0            0            0            0            0 
10271000    418.61539    54239.295    311.00804   -452.09182    473.72556    21.633732    352.76876   -452.09182            0   -9.6551687            0            0            0            0            0            0 
10272000    531.39157    51714.189    323.46134   -482.13383    492.69436    10.560527     411.3352   -482.13383            0   -10.126612            0            0            0            0            0            0 
10273000    547.95769    51989.378    340.76611   -471.81951    519.05288    47.233371    462.70133   -471.81951            0    -10.07301            0            0            0            0            0            0 
10274000    398.75084    55469.228    327.64674   -454.22091    499.06953    44.848619    367.42281   -454.22091            0   -9.4410823            0            0            0            0            0            0 
10275000     632.4384    50606.527    322.21015   -489.30461    490.78855    1.4839427    468.25149   -489.30461            0   -10.348261            0            0            0            0            0            0 
10276000    608.43079    54379.021    337.07044    -449.7277    513.42364    63.695942    546.21943    -449.7277            0     -9.63036            0            0            0            0            0            0 
10277000    491.54355    53196.035    324.97592   -463.38333    495.00135    31.618015    412.96222   -463.38333            0   -9.8445221            0            0            0            0            0            0 
10278000    556.60873    51744.691    320.14357   -474.12964    487.64074    13.511101    433.55212   -474.12964            0   -10.120643            0            0            0            0            0            0 
10279000    487.45168     53243.27    311.37952   -462.12483    474.29139    12.166559    390.67205   -462.12483            0   -9.8357886            0            0            0            0            0            0 
10280000    419.12148    52890.363    304.05668    -475.9996    463.13729   -12.862307    310.42775    -475.9996            0   -9.9014172            0            0            0            0            0            0 
10281000    497.40223    51066.034    329.68127   -495.47442    502.16851    6.6940878    377.13227   -495.47442            0   -10.255144            0            0            0            0            0            0 
10282000    552.06564    52788.293    310.09156   -461.50427    472.32959    10.825322    435.84029   -461.50427            0   -9.9205623            0            0            0            0            0            0 
10283000    487.38084    55168.911    311.90629   -448.53758    475.09377    26.556192    418.69403   -448.53758            0   -9.4924757            0            0            0            0            0            0 
10284000    484.41484    50825.555    306.39114   -500.14958    466.69313   -33.456447    325.61053   -500.14958            0   -10.303666            0            0            0            0            0            0 
10285000    558.01824    52113.276    322.05082   -472.50334    490.54586    18.042524     442.1468   -472.50334            0   -10.049062            0            0            0            0            0            0 
10286000    449.40903    52096.709    301.28582   -475.22872    458.91674   -16.311979    325.13869   -475.22872            0   -10.052258            0            0            0            0            0            0 
10287000     543.6826    52922.132    334.21891   -471.99863    509.08022    37.081588    456.70398   -471.99863            0   -9.8954733            0            0            0            0            0            0 
10288000    611.45682    53621.861    317.00795   -443.04057    482.86458    39.824007    517.99537   -443.04057            0   -9.7663442            0            0            0            0            0            0 
10289000    586.99446    51191.541    312.48227   -485.16166     475.9711   -9.1905661    429.04548   -485.16166            0   -10.230002            0            0            0            0            0            0 
10290000    369.37009    56828.746    333.07308    -449.7768     507.3349    57.558101    363.68796    -449.7768            0   -9.2152226            0            0            0            0            0            0 
10291000    509.44269    52622.057    319.40007   -466.57759    486.50825     19.93066    410.89671   -466.57759            0   -9.9519018            0            0            0            0            0            0 
10292000    508.53008    55092.975    312.95185   -442.93852    476.68636    33.747846    442.33881   -442.93852            0   -9.5055593            0            0            0            0            0            0 
10293000    578.18118    52667.585    314.96709   -456.98215    479.75596    22.773803    466.87633   -456.98215            0    -9.943299            0            0            0            0            0            0 
10294000    460.65696    55708.808    303.20451   -435.85789    461.83926    25.981377    400.24481   -435.85789            0   -9.4004801            0            0            0            0            0            0 
10295000    568.09091    50018.913    322.77442   -499.43354    491.64804   -7.7855031    406.62235   -499.43354            0   -10.469831            0            0            0            0            0            0 
10296000    562.26072    52822.039    330.72636   -467.82913    503.76039    35.931256    469.07176   -467.82913            0   -9.9142243            0            0            0            0            0            0 
10297000    524.02102    54007.269    305.53449   -449.14449    465.38828    16.243793    428.98403   -449.14449            0   -9.6966492            0            0            0            0            0            0 
10298000    354.38527    54189.058    310.35081    -465.4976    472.72447    7.2268662    287.29465    -465.4976            0   -9.6641197            0            0            0            0            0            0 
10299000    534.38988    53158.252    353.18168   -462.62467     537.9642    75.339526    489.62986   -462.62467            0   -9.8515193            0            0            0            0            0            0 
10300000    465.62385    57671.244    310.31832   -421.44231    472.67498    51.232674    442.85769   -421.44231            0   -9.0806007            0            0            0            0            0            0 
10301000    505.40019    52467.619    321.34559   -469.83551    489.47166    19.636145    406.36149   -469.83551            0   -9.9811953            0            0            0            0            0            0 
10302000    628.58396    50621.912    314.39532   -476.28728    478.88504    2.5977579    466.66159   -476.28728            0   -10.345116            0            0            0            0            0            0 
10303000      280.889    55865.826    313.97258   -465.47694    478.24113    12.764188    241.61731   -465.47694            0   -9.3740589            0            0            0            0            0            0 
10304000    405.83524      53081.4    297.58237   -465.16687    453.27566   -11.891211    302.28118   -465.16687            0   -9.8657824            0            0            0            0            0            0 
10305000    500.99016    55269.047    306.54819   -445.66036    466.93235    21.271982    425.09127   -445.66036            0   -9.4752772            0            0            0            0            0            0 
10306000    531.78435    53139.343    356.28385   -470.22893     542.6894    72.460473     484.5842   -470.22893            0   -9.8550249            0            0            0            0            0            0 
10307000    477.23531    53814.967    323.10542   -456.73727    492.15222    35.414948    409.96645   -456.73727            0   -9.7312992            0            0            0            0            0            0 
10308000      512.448    54688.186    304.55767   -448.71332    463.90039    15.187068    423.90079   -448.71332            0   -9.5759172            0            0            0            0            0            0 
10309000    482.75789    53764.752     321.6153   -464.92373    489.88248    24.958745    403.49102   -464.92373            0   -9.7403881            0            0            0            0            0            0 
10310000    656.73403    51168.482    340.16649   -476.80183    518.13954    41.337709    531.41879   -476.80183            0   -10.234612            0            0            0            0            0            0 
10311000     397.9466      53234.1     310.2748    -473.9945    472.60869    -1.385814     307.5659    -473.9945            0   -9.8374828            0            0            0            0            0            0 
10312000    387.93246    54871.276    307.71837   -457.92432    468.71475    10.790427       321.23   -457.92432            0   -9.5439651            0            0            0            0            0            0 
10313000     350.2216    55641.037    320.52071   -457.51522    488.21519    30.699971     314.8934   -457.51522            0   -9.4119299            0            0            0            0            0            0 
10314000    325.66772      53429.9    329.39076   -482.37948    501.72601    19.346528    273.11342   -482.37948            0   -9.8014323            0            0            0            0            0            0 
10315000    473.04801    52178.226     334.4893   -477.46357    509.49208    32.028507    392.00192   -477.46357            0   -10.036553            0            0            0            0            0            0 
10316000    402.76913    53945.839    309.85573   -463.65602    471.97036    8.3143401    325.19083   -463.65602            0   -9.7076913            0            0            0            0            0            0 
10317000    381.35059    53104.447    301.25627   -476.31777    458.87173   -17.446039    277.90004   -476.31777            0   -9.8615008            0            0            0            0            0            0 
10318000    483.62178    53861.558    300.70144   -456.96565    458.02661    1.0609603     380.9534   -456.96565            0   -9.7228815            0            0            0            0            0            0 
10319000    604.98151    51918.993    321.04311   -472.08057    489.01092    16.930343    475.01343   -472.08057            0   -10.086666            0            0            0            0            0            0 
10320000    561.17269     53328.01    314.39982   -459.72776    478.89191    19.164148    455.60741   -459.72776            0   -9.8201592            0            0            0            0            0            0 
10321000    471.87863    53376.409    317.48796   -465.37755    483.59573    18.218181    385.54747   -465.37755            0   -9.8112547            0            0            0            0            0            0 
10322000     518.5128    54066.689    312.76773   -457.02977    476.40591    19.376135    428.22722   -457.02977            0   -9.6859925            0            0            0            0            0            0 
10323000    563.15584    52752.918    309.22992   -454.41052    471.01713    16.606609    449.86897   -454.41052            0   -9.9272148            0            0            0            0            0            0 
10324000    603.91419     52470.79    330.43352   -467.79865    503.31434    35.515689    497.65055   -467.79865            0   -9.9805919            0            0            0            0            0            0 
10325000    515.62941    53462.697    307.24613   -470.52549    467.99545    -2.530042    399.50549   -470.52549            0   -9.7954196            0            0            0            0            0            0 
10326000    321.76597    52861.715    313.81925   -491.08819    478.00758   -13.080609    234.97968   -491.08819            0   -9.9067831            0            0            0            0            0            0 
10327000    447.54774    53631.744    289.24648   -460.99962    440.57848   -20.421143    329.63458   -460.99962            0   -9.7645444            0            0            0            0            0            0 
10328000    463.29455    52824.964    309.38066   -471.84714    471.24674  -0.60040261    356.32075   -471.84714            0   -9.9136754            0            0            0            0            0            0 
10329000    413.48222    53970.206    318.42008    -465.4638    485.01554    19.551738    345.00363    -465.4638            0   -9.7033083            0            0            0            0            0            0 
10330000    582.06621    51396.146    327.38779   -483.64792     498.6751    15.027177    451.32077   -483.64792            0   -10.189277            0            0            0            0            0            0 
10331000    458.97375    55113.915    326.03616   -458.72947    496.61631    37.886839    406.80072   -458.72947            0   -9.5019478            0            0            0            0            0            0 
10332000    621.64885    53077.096    322.40504   -457.95016     491.0854    33.135234    514.33808   -457.95016            0   -9.8665824            0            0            0            0            0            0 
10333000    549.17801    51383.117     324.0653   -479.56441    493.61429    14.049887    425.58744   -479.56441            0    -10.19186            0            0            0            0            0            0 
10334000    393.69236    54282.107    320.99354   -460.39204    488.93541    28.543367    340.20948   -460.39204            0   -9.6475537            0            0            0            0            0            0 
10335000    365.93278    52671.061    331.03637   -492.18356    504.23259    12.049025    293.14153   -492.18356            0   -9.9426429            0            0            0            0            0            0 
10336000     512.9567    54673.358    312.89198   -447.54939    476.59516    29.045769    438.05428   -447.54939            0   -9.5785144            0            0            0            0            0            0 
10337000     520.2368    50731.699    336.89142   -493.86497    513.15096    19.285988    404.19348   -493.86497            0   -10.322728            0            0            0            0            0            0 
10338000    496.84855    52896.174    337.91269   -466.57663    514.70656     48.12993      431.417   -466.57663            0   -9.9003294            0            0            0            0            0            0 
10339000    570.04345    53157.322    336.92334   -460.20196     513.1996    52.997634    494.92098   -460.20196            0   -9.8516917            0            0            0            0            0            0 
10340000    549.62639    53360.243    315.42528    -454.6866    480.45387    25.767279    453.48896    -454.6866            0   -9.8142272            0            0            0            0            0            0 
10341000     477.7586    50182.985    311.13505   -502.31903    473.91903   -28.400007    321.25593   -502.31903            0     -10.4356            0            0            0            0            0            0 
10342000    455.38877    52748.684    340.80644   -477.63111     519.1143    41.483188    391.80714   -477.63111            0   -9.9280116            0            0            0            0            0            0 
10343000    432.24766    55706.772    329.00655   -447.92125    501.14079    53.219536    404.38883   -447.92125            0   -9.4008238            0            0            0            0            0            0 
10344000    506.71536    55063.861    327.29253   -450.16097    498.52999    48.369023    455.28676   -450.16097            0   -9.5105854            0            0            0            0            0            0 
10345000    648.20438    51633.116    342.81863   -473.38094    522.17926    48.798323    536.90662   -473.38094            0   -10.142513            0            0            0            0            0            0 
10346000    546.79062    53726.957    316.05938   -452.63069    481.41973    28.789035    457.22822   -452.63069            0   -9.7472401            0            0            0            0            0            0 
10347000    473.43009    53748.095    319.10798   -467.96715    486.06334    18.096189    389.19949   -467.96715            0   -9.7434066            0            0            0            0            0            0 
10348000    480.58879      51475.6    335.05765   -489.10607    510.35779    21.251716    382.03877   -489.10607            0   -10.173549            0            0            0            0            0            0 
10349000    523.29422    53964.968    329.66368   -457.04931    502.14172    45.092406    456.93736   -457.04931            0   -9.7042501            0            0            0            0            0            0 
10350000      447.969    51716.998    301.64458   -477.18013     459.4632    -17.71693    320.15893   -477.18013            0   -10.126062            0            0            0            0            0            0 
10351000    481.60064     55242.65    328.58243    -448.2384    500.49477    52.256376    440.26149    -448.2384            0   -9.4798049            0            0            0            0            0            0 
10352000    548.49809    54904.223    313.26203   -440.35511    477.15882    36.803704    475.99807   -440.35511            0   -9.5382379            0            0            0            0            0            0 
10353000    388.41845    52558.357    314.92876    -480.7812    479.69758   -1.0836192     296.6429    -480.7812            0   -9.9639634            0            0            0            0            0            0 
[...]
14939000    487.09395    52500.227    325.77385   -478.08442    496.21675    18.132331    391.08164   -478.08442            0   -9.9749958            0            0            0            0            0            0 
14940000    421.13034    54881.178    295.19967   -443.86131    449.64635    5.7850396    342.85174   -443.86131            0   -9.5422431            0            0            0            0            0            0 
14941000    451.66662    53063.887    313.42825   -469.01467    477.41201    8.3973355    357.93416   -469.01467            0   -9.8690386            0            0            0            0            0            0 
14942000      533.238    51752.736    327.98568    -481.5616    499.58579    18.024192    420.49121    -481.5616            0    -10.11907            0            0            0            0            0            0 
14943000    574.32087    52667.896    327.08669   -470.70285    498.21647    27.513612    468.65363   -470.70285            0   -9.9432404            0            0            0            0            0            0 
14944000    488.67417    53579.798    345.74217   -471.22389    526.63237    55.408478     437.2616   -471.22389            0   -9.7740111            0            0            0            0            0            0 
14945000    376.15641    54905.554    338.42325   -469.37402    515.48424    46.110218    347.31415   -469.37402            0   -9.5380067            0            0            0            0            0            0 
14946000    416.42897    52413.817    310.20392   -482.74138    472.50073   -10.240652    308.07839   -482.74138            0   -9.9914407            0            0            0            0            0            0 
14947000    513.76113    53763.157    330.78681   -458.16255    503.85247    45.689912    448.51999   -458.16255            0    -9.740677            0            0            0            0            0            0 
14948000    507.12565    53523.722    341.37617   -460.75227    519.98211    59.229841    455.08633   -460.75227            0   -9.7842512            0            0            0            0            0            0 
14949000    483.58102    53693.993      316.503   -462.82824    482.09545    19.267209    397.94588   -462.82824            0   -9.7532241            0            0            0            0            0            0 
14950000    417.29194     56009.03    316.56915    -452.1265    482.19621    30.069709    370.92806    -452.1265            0   -9.3500914            0            0            0            0            0            0 
14951000    467.80017     51795.95    321.83558   -493.39562    490.21801   -3.1776062    350.19434   -493.39562            0   -10.110627            0            0            0            0            0            0 
14952000    463.00448    53484.354    322.43699   -464.94257    491.13408    26.191502    387.34169   -464.94257            0   -9.7914531            0            0            0            0            0            0 
14953000    602.76017    53155.925    320.46244   -451.15844    488.12645    36.968012    504.24255   -451.15844            0   -9.8519506            0            0            0            0            0            0 
14954000     526.8609    54397.034    322.88227   -446.30269    491.81232    45.509629    463.48152   -446.30269            0    -9.627171            0            0            0            0            0            0 
14955000    423.37763    53390.309    304.28475   -474.72812    463.48469   -11.243437    318.41654   -474.72812            0   -9.8087005            0            0            0            0            0            0 
14956000    430.06498    54601.783    314.43925   -457.93389    478.95196    21.018068    363.48354   -457.93389            0   -9.5910704            0            0            0            0            0            0 
14957000    416.97699    53890.688    305.77457   -461.70533    465.75397    4.0486472    331.76771   -461.70533            0   -9.7176259            0            0            0            0            0            0 
14958000    410.89982    54390.483    314.61773   -461.54836    479.22382    17.675466    343.61329   -461.54836            0   -9.6283305            0            0            0            0            0            0 
14959000    406.08152    54231.666    311.14905   -464.97478    473.94034    8.9655662    330.14081   -464.97478            0    -9.656527            0            0            0            0            0            0 
14960000    494.85502    52741.092    324.68609   -471.66275    494.55989    22.897139    403.52711   -471.66275            0   -9.9294408            0            0            0            0            0            0 
14961000    506.43344    54265.862    322.39042   -461.24482    491.06314     29.81832    430.61579   -461.24482            0   -9.6504418            0            0            0            0            0            0 
14962000    414.66938    57441.943    309.18803   -434.73498    470.95333    36.218351    383.60009   -434.73498            0   -9.1168494            0            0            0            0            0            0 
14963000    623.99694    49613.626    309.19636   -491.55397    470.96601   -20.587953    430.91367   -491.55397            0   -10.555357            0            0            0            0            0            0 
14964000    549.61343     53591.97    323.16787   -451.65004    492.24734    40.597303    470.16631   -451.65004            0   -9.7717913            0            0            0            0            0            0 
14965000    478.25662    52165.119    336.87843   -476.00578    513.13117    37.125398    400.97096   -476.00578            0   -10.039075            0            0            0            0            0            0 
14966000    482.69214    54346.179    321.44239   -451.72755     489.6191    37.891554    420.46528   -451.72755            0   -9.6361796            0            0            0            0            0            0 
14967000    557.83108    52599.345    321.02657   -469.79405    488.98573    19.191676    447.10807   -469.79405            0   -9.9561991            0            0            0            0            0            0 
14968000    550.37996    53977.056    335.68637   -451.75731    511.31544    59.558132    492.81724   -451.75731            0   -9.7020768            0            0            0            0            0            0 
14969000    412.13714    52516.573    308.71744   -480.09887    470.23654   -9.8623294    305.79365   -480.09887            0    -9.971891            0            0            0            0            0            0 
14970000    484.89503    53444.798    310.45422   -459.81426    472.88198     13.06772    391.01312   -459.81426            0      -9.7987            0            0            0            0            0            0 
14971000    522.59646     53476.74    327.28067   -457.68173    498.51193    40.830203    448.40496   -457.68173            0   -9.7928471            0            0            0            0            0            0 
14972000    642.30174    50364.962    326.44266   -486.16042    497.23549    11.075071    482.85938   -486.16042            0   -10.397894            0            0            0            0            0            0 
14973000    368.85454    55312.385    320.92148   -460.07543    488.82565    28.750219    326.29573   -460.07543            0   -9.4678533            0            0            0            0            0            0 
14974000    533.56382    54017.149    336.29791   -456.83504    512.24694    55.411893    475.74531   -456.83504            0   -9.6948757            0            0            0            0            0            0 
14975000    515.98237    54099.561    347.64594   -454.31623    529.53219     75.21596    482.31914   -454.31623            0    -9.680107            0            0            0            0            0            0 
14976000    557.33759    54477.188    319.94187   -447.56113    487.33352    39.772386     482.5737   -447.56113            0   -9.6130062            0            0            0            0            0            0 
14977000    497.56549    52125.647    327.43784   -478.71203    498.75133    20.039297    398.28813   -478.71203            0   -10.046677            0            0            0            0            0            0 
14978000    503.31071    53102.536    322.26172   -473.24846     490.8671    17.618641    407.40562   -473.24846            0   -9.8618557            0            0            0            0            0            0 
14979000    529.07747    53179.671    324.26184   -467.66337    493.91367      26.2503    436.58742   -467.66337            0   -9.8475514            0            0            0            0            0            0 
14980000    524.20861    52251.879    307.70104   -476.30308    468.68835   -7.6147298    391.85323   -476.30308            0   -10.022406            0            0            0            0            0            0 
14981000    556.36408    53620.209     344.2613   -457.55682    524.37673    66.819904    501.89424   -457.55682            0   -9.7666451            0            0            0            0            0            0 
14982000    461.31159    53513.215    312.65361   -467.51686    476.23209     8.715228     368.7391   -467.51686            0   -9.7861724            0            0            0            0            0            0 
14983000     434.0128    55257.434    313.60548   -450.28583    477.68196    27.396136    377.15533   -450.28583            0   -9.4772685            0            0            0            0            0            0 
14984000    438.75259    52899.186    329.39426   -474.32782    501.73134     27.40352    365.89252   -474.32782            0   -9.8997658            0            0            0            0            0            0 
14985000    373.86229    54303.218    310.18287   -470.69816    472.46866    1.7705022    297.85327   -470.69816            0   -9.6438031            0            0            0            0            0            0 
14986000    526.29281     51320.31    321.89162   -485.92787    490.30337    4.3754928     398.2815   -485.92787            0   -10.204333            0            0            0            0            0            0 
14987000    478.07742    53514.583    316.57564   -460.38166    482.20609    21.824434    394.94249   -460.38166            0   -9.7859222            0            0            0            0            0            0 
14988000    489.59181    51990.213    320.50852    -482.5169    488.19663    5.6797223    376.89995    -482.5169            0   -10.072849            0            0            0            0            0            0 
14989000    472.91309    54529.426    334.82497   -455.66197    510.00336    54.341389    430.42824   -455.66197            0   -9.6037971            0            0            0            0            0            0 
14990000    596.04391    50797.619    323.11442    -478.4122    492.16592    13.753717    455.32162    -478.4122            0   -10.309333            0            0            0            0            0            0 
14991000    416.12885     53296.16    304.68834    -471.4213    464.09944    -7.321863    316.12253    -471.4213            0   -9.8260277            0            0            0            0            0            0 
14992000    460.63343    55007.658    326.01804   -453.60213    496.58871    42.986572    412.52065   -453.60213            0   -9.5203026            0            0            0            0            0            0 
14993000    458.73626    55583.163    320.49108   -446.46901    488.17006    41.701049    413.56341   -446.46901            0   -9.4217299            0            0            0            0            0            0 
14994000    505.48577    51967.527    331.25863   -483.33887    504.57114     21.23227    404.33643   -483.33887            0   -10.077246            0            0            0            0            0            0 
14995000    490.91032    54376.294    310.02989   -448.80266    472.23564    23.432982    412.73589   -448.80266            0   -9.6308429            0            0            0            0            0            0 
14996000    498.21401    53085.196    322.17319   -463.75874    490.73225    26.973517    412.68738   -463.75874            0   -9.8650771            0            0            0            0            0            0 
14997000     521.0861    52877.312    321.87716   -470.57846    490.28133     19.70287    421.54434   -470.57846            0    -9.903861            0            0            0            0            0            0 
14998000    477.22437    55631.664    316.05836   -446.90125    481.41818    34.516932    421.70374   -446.90125            0   -9.4135157            0            0            0            0            0            0 
14999000     368.0295      56834.7    324.59532   -440.51036    494.42162    53.911261    358.96201   -440.51036            0   -9.2142572            0            0            0            0            0            0 
15000000    487.51475    53282.816    308.87025   -469.79795    470.46928   0.67133467    379.50696   -469.79795            0   -9.8284886            0            0            0            0            0            0 
Loop time of 1578.12 on 8 procs for 5000000 steps with 512 atoms

Pair  time (%) = 873.92 (55.3772)
Bond  time (%) = 0.477257 (0.030242)
Neigh time (%) = 31.9811 (2.02653)
Comm  time (%) = 506.482 (32.094)
Outpt time (%) = 0.25552 (0.0161914)
Other time (%) = 165.007 (10.4559)

Nlocal:    64 ave 70 max 58 min
Histogram: 2 0 1 0 1 1 0 1 0 2
Nghost:    1344 ave 1372 max 1315 min
Histogram: 1 1 0 2 0 1 0 1 0 2
Neighs:    6215.38 ave 6929 max 5608 min
Histogram: 1 2 0 0 2 0 1 1 0 1

Total # of neighbors = 49723
Ave neighs/atom = 97.1152
Ave special neighs/atom = 0
Neighbor list builds = 82977
Dangerous builds = 0

Averages
Group Pressure(MPa) Volume(m3) Temperature(K) PE(J) KE(J) ET(J) ET^2(J) H(J) H^2(J^2) V^2(m6) V*H(m3*J) Hconf(J) Uext*Hconf(J^2) V*Hconf(m3*J) Uext(J)
Block1 49.854934578366815856 5.3316321663629314469e-26 320.10610997424754487 -3.2362676939781628764e-18 3.3875826581661400841e-18 1.5131496418797547429e-19 4.9754378681166587829e-38 2.8052123730318288591e-18 8.05688744984226245e-36 2.8447546639745890393e-51 1.4957527834749329853e-43 -5.823702851343107435e-19 1.9039308366481491995e-36 -3.1041197188224259744e-44 -3.2362676939781628764e-18
Block2 50.050810219183773597 5.339598737673784624e-26 320.12620101298909958 -3.228863987546435915e-18 3.3877952753337192738e-18 1.5893128778728499584e-19 5.3044973701286833292e-38 2.8268691306926196335e-18 8.1802600007143019071e-36 2.8532978433787369702e-51 1.509470689274193231e-43 -5.6092614464110031443e-19 1.8290063533353211434e-36 -2.9958418190143488207e-44 -3.228863987546435915e-18
Block3 50.179456821531346122 5.3402262544312799053e-26 320.53802656885295619 -3.2265350181715973698e-18 3.3921534961478908165e-18 1.6561847797629806901e-19 5.5343798407625192553e-38 2.8415145599965150349e-18 8.2816390548004949505e-36 2.853930271785212079e-51 1.5178091052085552849e-43 -5.5063893615137626316e-19 1.7984059232296022031e-36 -2.9371768849412027171e-44 -3.2265350181715973698e-18
Block4 50.306684846468655792 5.3399580880880949772e-26 320.05322437372655031 -3.2253414138822003194e-18 3.3870229864272726697e-18 1.6168157254507733367e-19 5.2251143826838285431e-38 2.8437376254793809691e-18 8.2860819417934992484e-36 2.8535610147314923898e-51 1.5185268794991082961e-43 -5.4328536094789487839e-19 1.7721139501664038323e-36 -2.9019166652795232492e-44 -3.2253414138822003194e-18
Block5 49.694835603438974658 5.3392474081144630531e-26 320.01833878970040814 -3.2316443225610047219e-18 3.3866538032227567174e-18 1.5500948066175411403e-19 4.8743296574425858738e-38 2.8037389963172265374e-18 8.0588986524925425872e-36 2.8528028271248045035e-51 1.4966415162601674028e-43 -5.8291480690553085403e-19 1.9010491725037047888e-36 -3.115026449227696573e-44 -3.2316443225610047219e-18
Ave_blocks 50.017344413797914626 5.3381325309341112605e-26 320.16838014390333456 -3.2297304872278804716e-18 3.3882416438595558353e-18 1.5851115663167801181e-19 5.1827518238268559921e-38 2.8242145371035143609e-18 8.1727534199286196941e-36 2.8516693241989672338e-51 1.5076401947433915197e-43 -5.6402710675604262996e-19 1.8409012471766363671e-36 -3.0108163074570398651e-44 -3.2297304872278804716e-18
Stdev_blocks 0.2197758704923001849 3.2669187285281434128e-29 0.18871586683039326404 3.9146812590457204013e-21 1.9971208854681480861e-21 4.995777902042546604e-21 2.3595005220627691267e-39 1.7133701578186515452e-20 1.0113714964996555419e-37 3.4767745592416299352e-54 9.8748046085882662278e-46 1.6200595713131759066e-20 5.3421971803615635856e-38 8.6106227578795097214e-46 3.9146812590457204013e-21






Properties
Group rho(kg/m3) Cp(J/K) Cp_conf(J/K) Cp_id(J/K) Cp2(J/K) kT(1/Pa) aP(1/K) aP2(1/K) Cv(J/K) uJT(K/Pa) sos(m/s) Cv2(J/K) uJT2(K/Pa) sos2(m/s) CvNVT(J/K)
Block1 255.8172382226530317 1.3265572650570657191e-19 6.8247294795618425891e-21 3.1105262982949197781e-20 3.7929992462511037361e-20 9.0161484948831571704e-09 0.00015475905704796720746 0.00011460315172874175368 1.3261039029301554226e-19 -3.8200437095691961952e-07 658.5652238155877285 3.7905131026496977287e-20 -1.3540841970603979395e-06 658.66857856619697031 1.8984760126411457677e-20
Block2 255.43556417354008659 1.3362849370130753695e-19 5.2931670509839308371e-21 3.110599324524704143e-20 3.6399160296230969258e-20 9.1795345668588737825e-09 4.7657323688816155831e-05 -9.5471273155106858616e-05 1.3362426440142156189e-19 -3.9348912512624482195e-07 653.06417450463050045 3.638218745263577117e-20 -1.5117909534466736953e-06 653.20615179547189655 1.963801322622752894e-20
Block3 255.40554857319989424 1.4623042106397481149e-19 9.452227507489985264e-21 3.1120980232228738634e-20 4.0573207739718726907e-20 9.006936829411955714e-09 0.00049639984620854845244 0.00044349423915093018518 1.457621197502145285e-19 -3.0708494009679103123e-07 660.37831715107688524 4.0199408799882628075e-20 -1.1290891708558094934e-06 662.37833158438286318 1.9678169032559144059e-20
Block4 255.4183747360386576 1.4087862530038969488e-19 6.6718363255190196071e-21 3.1103341107992879629e-20 3.7775177433511902246e-20 8.6699163203280717485e-09 -2.2634694141351312127e-05 -0.00010534977927897264723 1.4087761536309484331e-19 -3.8179265105238296675e-07 671.99808470774348734 3.775329919213335573e-20 -1.4612792566730678588e-06 672.19036034376051703 1.8462171460564298883e-20
Block5 255.45237217237149707 1.3999561100559516186e-19 4.2002797381902461081e-21 3.1102073669688000136e-20 3.5302353407878249253e-20 8.6752462781452916754e-09 -0.00045579808545220893692 -0.00035765409375451142574 1.3958642752466914556e-19 -4.3701727451527771303e-07 672.72836184859590958 3.5050412030050118863e-20 -1.6855407742852596194e-06 674.15442430999507906 1.7479698754221708214e-20
Ave_blocks 255.50581957556065049 1.3867777551539476023e-19 6.4884480203490057839e-21 3.1107530247621170318e-20 3.7595978267970174598e-20 8.9095564979254716725e-09 4.4076689470354313337e-05 -7.5551061783801258403e-08 1.3849216346648314357e-19 -3.8027767234952320932e-07 663.34683240552681127 3.7458087700239777447e-20 -1.4283568704642415942e-06 664.11956931996144249 1.8848562519996828758e-20
Stdev_blocks 0.15650871800065446759 5.0076582561310729456e-21 1.7660756508080155872e-21 6.8662665969324619381e-24 1.7720418396213700213e-21 2.0300819406772880845e-10 0.00030698040486743405787 0.00026756336998092801471 4.858636761874714266e-21 4.1848244029040653908e-08 7.7494022752458553427 1.7179233048923813326e-21 1.8399254123191944851e-07 7.9709958416010078253 8.1891577482772538564e-22






