LAMMPS (28 Oct 2012)
Scanning data file ...
Reading data file ...
  orthogonal box = (0 0 0) to (100 100 100)
  2 by 2 by 2 MPI processor grid
  512 atoms
Finding 1-2 1-3 1-4 neighbors ...
  0 = max # of 1-2 neighbors
  0 = max # of 1-3 neighbors
  0 = max # of 1-4 neighbors
  1 = max # of special neighbors
WARNING: Resetting reneighboring criteria during minimization (min.cpp:173)
Setting up minimization ...
Memory usage per processor = 4.05499 Mbytes
Step Temp E_pair E_mol TotEng Press 
       0       500.15    1409.7233            0    2171.5488    447.34124 
     701       500.15   -217.27527            0    544.55018    34.596342 
Loop time of 0.053875 on 8 procs for 701 steps with 512 atoms

Minimization stats:
  Stopping criterion = energy tolerance
  Energy initial, next-to-last, final = 
         1409.72334813     -217.256630745     -217.275265106
  Force two-norm initial, final = 5034.49 0.337455
  Force max component initial, final = 2457.89 0.147661
  Final line search alpha, max atom move = 0.254892 0.0376377
  Iterations, force evaluations = 701 710

Pair  time (%) = 0.00893211 (16.5793)
Bond  time (%) = 6.30319e-05 (0.116997)
Neigh time (%) = 0.00315052 (5.84784)
Comm  time (%) = 0.0220913 (41.0048)
Outpt time (%) = 0 (0)
Other time (%) = 0.019638 (36.4511)

Nlocal:    64 ave 74 max 52 min
Histogram: 1 0 0 1 1 2 0 2 0 1
Nghost:    235.125 ave 266 max 224 min
Histogram: 4 0 2 0 0 1 0 0 0 1
Neighs:    316.25 ave 371 max 226 min
Histogram: 1 0 0 1 1 1 0 1 0 3

Total # of neighbors = 2530
Ave neighs/atom = 4.94141
Ave special neighs/atom = 0
Neighbor list builds = 60
Dangerous builds = 0
Setting up run ...
Memory usage per processor = 3.36354 Mbytes
Step Temp E_pair E_mol TotEng Press Volume 
     701       500.15   -217.27527            0    544.55018    34.596342      1000000 
 5000701    474.80429   -249.64549            0    473.57354    459.50836    88962.511 
Loop time of 1135.9 on 8 procs for 5000000 steps with 512 atoms

Pair  time (%) = 564.068 (49.6584)
Bond  time (%) = 0.453003 (0.0398806)
Neigh time (%) = 26.0389 (2.29237)
Comm  time (%) = 391.453 (34.462)
Outpt time (%) = 4.08292e-05 (3.59444e-06)
Other time (%) = 153.884 (13.5474)

Nlocal:    64 ave 72 max 57 min
Histogram: 1 0 1 1 1 1 2 0 0 1
Nghost:    958 ave 973 max 950 min
Histogram: 2 1 2 1 0 0 1 0 0 1
Neighs:    3715.75 ave 4217 max 3070 min
Histogram: 1 0 1 1 0 0 3 0 1 1

Total # of neighbors = 29726
Ave neighs/atom = 58.0586
Ave special neighs/atom = 0
Neighbor list builds = 103997
Dangerous builds = 3
Setting up run ...
Memory usage per processor = 3.93993 Mbytes
Step Press Volume Temp PotEng KinEng TotEng Enthalpy E_vdwl E_coul E_tail E_long E_bond E_angle E_dihed E_impro E_mol 
10000000    459.50836    88962.511    474.80429   -249.64549    723.21902    473.57354    1069.7521   -249.64549            0   -5.8866318            0            0            0            0            0            0 
10001000    514.00575    85183.814    495.27187   -257.44834     754.3951    496.94677    1135.5056   -257.44834            0   -6.1477588            0            0            0            0            0            0 
10002000    477.69824    80133.384     521.1026    -307.7843    793.74032    485.95602    1044.2244    -307.7843            0   -6.5352232            0            0            0            0            0            0 
10003000    545.58754    84390.855    489.53744   -262.26978    745.66047    483.39069    1154.8748   -262.26978            0   -6.2055248            0            0            0            0            0            0 
10004000    435.66205     90203.46    488.94248   -254.47942    744.75421    490.27479    1063.3991   -254.47942            0   -5.8056481            0            0            0            0            0            0 
10005000     499.4756    83898.484    511.84917   -267.30216    779.64555    512.34339    1123.4884   -267.30216            0   -6.2419429            0            0            0            0            0            0 
10006000    520.11284    85289.401    532.71474   -262.40645    811.42787    549.02142    1195.9682   -262.40645            0    -6.140148            0            0            0            0            0            0 
10007000    430.53475    85975.912    494.89533   -275.25749    753.82157    478.56408    1018.3989   -275.25749            0   -6.0911194            0            0            0            0            0            0 
10008000    445.86607    90401.821    483.24634   -248.42412    736.07789    487.65377    1075.4916   -248.42412            0   -5.7929092            0            0            0            0            0            0 
10009000    541.21197    77683.864    513.30157   -296.81306    781.85783    485.04477    1098.2052   -296.81306            0   -6.7412911            0            0            0            0            0            0 
10010000    527.17211     83857.92    497.62239   -262.81667     757.9754    495.15873    1139.8806   -262.81667            0   -6.2449623            0            0            0            0            0            0 
10011000    494.12975    86742.885    488.58484   -257.42701    744.20947    486.78246    1111.8843   -257.42701            0   -6.0372623            0            0            0            0            0            0 
10012000    479.92743     84616.57    479.42533   -261.84612    730.25776    468.41164    1060.6641   -261.84612            0   -6.1889716            0            0            0            0            0            0 
10013000    454.54293     86919.46    468.36976    -253.8367    713.41797    459.58128    1035.7741    -253.8367            0   -6.0249977            0            0            0            0            0            0 
10014000    578.77264    78769.821     522.1048    -285.8734    795.26687    509.39347    1174.2742    -285.8734            0   -6.6483526            0            0            0            0            0            0 
10015000    445.01749    84609.046    473.47142   -272.90944     721.1888    448.27936    997.40253   -272.90944            0   -6.1895219            0            0            0            0            0            0 
10016000    508.81302    86541.657     509.9128    -258.9782    776.69608    517.71788    1159.9016    -258.9782            0   -6.0513002            0            0            0            0            0            0 
10017000    492.77562    82699.173    552.35651   -283.58924    841.34609    557.75685     1152.085   -283.58924            0   -6.3324641            0            0            0            0            0            0 
10018000    429.00661    85831.358    507.54128   -266.69675     773.0838    506.38704    1043.4013   -266.69675            0   -6.1013778            0            0            0            0            0            0 
10019000    445.13544    85771.101    484.00883   -271.79977    737.23932    465.43955    1022.2521   -271.79977            0   -6.1056643            0            0            0            0            0            0 
10020000    437.22462    89102.134    497.59663   -254.02263    757.93617    503.91355    1072.0709   -254.02263            0   -5.8774074            0            0            0            0            0            0 
10021000    614.53267    80658.967    499.38232   -258.46092    760.65613    502.19521    1225.0874   -258.46092            0   -6.4926389            0            0            0            0            0            0 
10022000    453.00183    88176.307    484.84077   -256.52096    738.50653    481.98556    1064.5283   -256.52096            0   -5.9391186            0            0            0            0            0            0 
10023000    493.37558    83383.111    523.79073   -282.61664    797.83486    515.21822    1115.1911   -282.61664            0    -6.280523            0            0            0            0            0            0 
10024000    459.24671    82449.062    455.69524   -274.16674    694.11222    419.94548     972.1598   -274.16674            0   -6.3516738            0            0            0            0            0            0 
10025000    417.52384    87371.302    507.76923   -272.40126    773.43101    501.02975    1033.0473   -272.40126            0   -5.9938393            0            0            0            0            0            0 
10026000    449.61549    80934.556    504.37008   -289.20647    768.25345    479.04698    1009.7495   -289.20647            0   -6.4705309            0            0            0            0            0            0 
10027000    480.44539    78654.816    477.14071   -292.73086    726.77783    434.04697    985.16578   -292.73086            0   -6.6580735            0            0            0            0            0            0 
10028000    500.45983    85788.815    511.56997   -256.38264    779.22028    522.83764    1148.9839   -256.38264            0   -6.1044036            0            0            0            0            0            0 
10029000    475.34652    84480.541    510.97829   -274.54258    778.31904    503.77646    1089.4329   -274.54258            0   -6.1989369            0            0            0            0            0            0 
10030000    481.15981    83267.391    505.08776   -271.31282    769.34661    498.03378    1082.3396   -271.31282            0   -6.2892513            0            0            0            0            0            0 
10031000    454.16074    87133.813    507.25548   -264.29727    772.64846     508.3512    1085.4793   -264.29727            0   -6.0101759            0            0            0            0            0            0 
10032000    550.98711    82789.607    527.29374   -269.39077    803.17063    533.77986    1199.0425   -269.39077            0   -6.3255469            0            0            0            0            0            0 
10033000     540.5707    80113.255    481.64541   -277.19285    733.63937    456.44652    1088.0329   -277.19285            0   -6.5368652            0            0            0            0            0            0 
10034000    420.78878    89857.247    472.06674   -254.43937    719.04919    464.60982    1016.0433   -254.43937            0   -5.8280168            0            0            0            0            0            0 
10035000    452.44482     86844.83    496.36521   -268.58655    756.06047    487.47392    1060.5146   -268.58655            0   -6.0301752            0            0            0            0            0            0 
10036000    439.72601    83964.606    502.63746   -286.26505    765.61433    479.34927    1017.8103   -286.26505            0   -6.2370274            0            0            0            0            0            0 
10037000    546.39017    82404.989    480.15143   -263.26097    731.36374    468.10278    1124.7502   -263.26097            0   -6.3550709            0            0            0            0            0            0 
10038000    471.53795    86910.848    510.95487   -268.49078    778.28336    509.79258    1107.4696   -268.49078            0   -6.0255947            0            0            0            0            0            0 
10039000    465.90619    82766.179    478.51375   -270.47466    728.86924    458.39458    1020.7712   -270.47466            0   -6.3273375            0            0            0            0            0            0 
10040000    511.93855    81281.506    498.61506   -282.85681    759.48743    476.63062    1083.4864   -282.85681            0   -6.4429115            0            0            0            0            0            0 
10041000    439.30125    88474.226    498.44123   -260.10721    759.22266    499.11545    1065.9484   -260.10721            0   -5.9191198            0            0            0            0            0            0 
10042000    469.41766     84247.69    480.84706   -270.57895    732.42333    461.84438     1038.602   -270.57895            0   -6.2160701            0            0            0            0            0            0 
10043000    583.83371    81433.859    513.13813   -267.28234    781.60888    514.32655    1207.7046   -267.28234            0   -6.4308575            0            0            0            0            0            0 
10044000    475.43419    85683.038     520.7567   -267.15988    793.21345    526.05357    1120.1558   -267.15988            0   -6.1119395            0            0            0            0            0            0 
10045000    546.26411    82515.483    519.22349   -267.90054    790.87808    522.97754    1180.3538   -267.90054            0   -6.3465609            0            0            0            0            0            0 
10046000    417.10474    84666.226    490.10289    -280.1724    746.52176    466.34935     981.3778    -280.1724            0   -6.1853418            0            0            0            0            0            0 
10047000    464.94759    82188.004    487.99977   -275.89846    743.31829    467.41983    1024.7189   -275.89846            0   -6.3718489            0            0            0            0            0            0 
10048000    527.98388    78478.772    500.99429   -290.18955    763.11146    472.92191    1077.2166   -290.18955            0   -6.6730089            0            0            0            0            0            0 
10049000    524.09484    87609.559    524.96666   -251.70741    799.62603    547.91863    1217.5523   -251.70741            0   -5.9775389            0            0            0            0            0            0 
10050000    470.69675    83224.933    500.12869   -279.18019    761.79299    482.61279    1053.9211   -279.18019            0   -6.2924598            0            0            0            0            0            0 
10051000    520.44591    81005.657     517.3783   -284.17226    788.06749    503.89523    1118.7419   -284.17226            0   -6.4648516            0            0            0            0            0            0 
10052000     488.1134    85069.184    511.07212   -265.59097    778.46195    512.87098    1118.4473   -265.59097            0   -6.1560429            0            0            0            0            0            0 
10053000      486.317    82426.816    485.50667   -275.00728    739.52081    464.51353    1049.1203   -275.00728            0    -6.353388            0            0            0            0            0            0 
10054000    474.32226    86213.647    531.64839   -267.94692     809.8036    541.85669    1138.2399   -267.94692            0   -6.0743231            0            0            0            0            0            0 
10055000    528.12111    81411.493    492.51515   -273.59105    750.19608    476.60504    1103.6449   -273.59105            0   -6.4326242            0            0            0            0            0            0 
10056000    498.08387     81950.92    515.41131   -275.14754    785.07138    509.92384    1105.2188   -275.14754            0   -6.3902827            0            0            0            0            0            0 
10057000    461.35861    86122.825    510.53332   -262.21829    777.64126    515.42297    1094.8954   -262.21829            0   -6.0807288            0            0            0            0            0            0 
10058000     557.2863    85143.106    522.70302   -257.29348    796.17807    538.88459    1230.8808   -257.29348            0   -6.1506981            0            0            0            0            0            0 
10059000    548.35895    85245.349    518.78059   -262.50137    790.20344    527.70207    1209.4307   -262.50137            0    -6.143321            0            0            0            0            0            0 
10060000    592.10235    83849.571    522.04354   -264.91757    795.17356    530.25599    1254.3143   -264.91757            0   -6.2455841            0            0            0            0            0            0 
10061000    494.13598    89183.615    520.49984   -253.73646     792.8222    539.08573    1181.7845   -253.73646            0   -5.8720376            0            0            0            0            0            0 
10062000    498.83569    80721.344    507.62649   -287.94932    773.21359    485.26427    1072.5126   -287.94932            0   -6.4876217            0            0            0            0            0            0 
10063000    421.70319    82337.391    486.68729   -280.29997    741.31912    461.01915    967.40303   -280.29997            0   -6.3602883            0            0            0            0            0            0 
10064000    480.94068     85536.84    486.16478   -262.58429    740.52324    477.93895    1077.8966   -262.58429            0   -6.1223859            0            0            0            0            0            0 
10065000      435.019    85104.197    501.49439   -284.33731    763.87321     479.5359     1019.463   -284.33731            0   -6.1535102            0            0            0            0            0            0 
10066000     478.3623    82796.837    512.14324   -274.48807    780.09347    505.60541    1083.2312   -274.48807            0   -6.3249946            0            0            0            0            0            0 
10067000    561.53786     79314.55    516.85896    -276.7667    787.27644    510.50974    1160.0526    -276.7667            0    -6.602692            0            0            0            0            0            0 
10068000     442.8619    86294.289    510.94342   -265.51673    778.26592    512.74919     1070.097   -265.51673            0   -6.0686466            0            0            0            0            0            0 
10069000    503.68606    82061.272    477.94782   -279.43867    728.00722    448.56855    1051.3697   -279.43867            0   -6.3816893            0            0            0            0            0            0 
10070000    430.50815    84652.843    487.32087   -270.24026     742.2842    472.04393    1003.5385   -270.24026            0   -6.1863197            0            0            0            0            0            0 
10071000    448.75877    87017.502    480.15754   -267.27808    731.37305    464.09498    1033.5972   -267.27808            0   -6.0182094            0            0            0            0            0            0 
10072000    521.54171    84744.428    488.38517   -259.12544    743.90534    484.77989    1129.3588   -259.12544            0    -6.179634            0            0            0            0            0            0 
10073000    544.92803    83079.729     526.2389   -273.62296     801.5639    527.94093    1188.1935   -273.62296            0   -6.3034576            0            0            0            0            0            0 
10074000    482.95599    81943.602    500.89765   -278.50372    762.96426    484.46054    1061.6236   -278.50372            0   -6.3908534            0            0            0            0            0            0 
10075000    438.15583    85980.442    486.48345   -271.78712    741.00864    469.22152    1018.6411   -271.78712            0   -6.0907985            0            0            0            0            0            0 
10076000    503.39213    87847.221    497.04155   -245.41626    757.09068    511.67442    1156.6011   -245.41626            0   -5.9613672            0            0            0            0            0            0 
10077000    522.91019    79450.304    532.51098   -289.82835    811.11749    521.28914    1127.1858   -289.82835            0   -6.5914102            0            0            0            0            0            0 
10078000    512.85549    84835.475    484.28438   -257.75333    737.65904    479.90571    1114.4302   -257.75333            0   -6.1730018            0            0            0            0            0            0 
10079000    441.65834    85022.834    481.14628   -278.91228     732.8791    453.96682    1001.6103   -278.91228            0   -6.1593988            0            0            0            0            0            0 
10080000    537.95086     83348.05    514.95114    -261.7733    784.37046    522.59716    1176.5011    -261.7733            0   -6.2831649            0            0            0            0            0            0 
10081000    478.60878     86754.28    505.90086   -263.84536    770.58512    506.73976    1112.2862   -263.84536            0   -6.0364692            0            0            0            0            0            0 
10082000     444.1236    79877.115    484.46552   -295.27844    737.93494     442.6565    960.02754   -295.27844            0   -6.5561901            0            0            0            0            0            0 
10083000    531.78092    83173.572    522.32437   -270.35778    795.60131    525.24353    1170.2944   -270.35778            0   -6.2963455            0            0            0            0            0            0 
10084000    560.89559    85368.256    507.43652   -252.17945    772.92423    520.74478    1219.0645   -252.17945            0   -6.1344763            0            0            0            0            0            0 
10085000    503.57615     86285.12    498.70025   -248.61834     759.6172    510.99886     1144.689   -248.61834            0   -6.0692915            0            0            0            0            0            0 
10086000    493.86184    84235.482    477.15128   -263.20541    726.79394    463.58852    1070.2919   -263.20541            0   -6.2169709            0            0            0            0            0            0 
10087000    505.28519    81875.914    509.93137   -277.60748    776.72438     499.1169    1102.4659   -277.60748            0   -6.3961368            0            0            0            0            0            0 
10088000    487.47743    84996.582    482.04525   -271.76616     734.2484    462.48224    1066.7534   -271.76616            0   -6.1613012            0            0            0            0            0            0 
10089000    507.73413    81242.455    483.39817   -277.49134    736.30916    458.81782    1060.4004   -277.49134            0   -6.4460084            0            0            0            0            0            0 
10090000    420.29451    87790.974    482.96828   -265.24089    735.65435    470.41347    1008.5339   -265.24089            0   -5.9651867            0            0            0            0            0            0 
10091000    501.70483    81133.246    499.19089   -284.16656    760.36454    476.19798    1069.8378   -284.16656            0    -6.454685            0            0            0            0            0            0 
10092000    487.31365    87982.319    499.96355   -253.63526    761.54145    507.90619    1133.1939   -253.63526            0   -5.9522135            0            0            0            0            0            0 
10093000    493.85298    85615.308    525.30735   -268.43993    800.14498    531.70504    1148.3355   -268.43993            0   -6.1167747            0            0            0            0            0            0 
10094000    612.39713    79665.242    518.39599   -273.90791    789.61763    515.70973    1227.2147   -273.90791            0   -6.5736265            0            0            0            0            0            0 
10095000    432.01009    88630.017    506.94648   -269.96309     772.1778    502.21471    1060.6214   -269.96309            0   -5.9087154            0            0            0            0            0            0 
10096000      451.287    88605.188    502.49164   -261.47379    765.39222    503.91843    1087.0786   -261.47379            0   -5.9103712            0            0            0            0            0            0 
10097000    460.11209    83642.185    515.51578   -273.91803    785.23051    511.31248    1072.5735   -273.91803            0   -6.2610696            0            0            0            0            0            0 
10098000    477.55719    85188.553     464.2627    -260.3143    707.16212    446.84782     1040.159    -260.3143            0   -6.1474168            0            0            0            0            0            0 
10099000    482.04789    84906.843    507.86018   -266.95445    773.56954    506.61509     1103.525   -266.95445            0   -6.1678132            0            0            0            0            0            0 
10100000    480.33572    81351.748    509.00661   -285.30657    775.31579    490.00922    1059.8948   -285.30657            0   -6.4373484            0            0            0            0            0            0 
10101000    481.82063    84418.396     467.8234   -258.14052    712.58576    454.44524    1047.6415   -258.14052            0   -6.2035003            0            0            0            0            0            0 
10102000    548.89111    86341.025    512.21384   -244.64912    780.20101    535.55189     1226.713   -244.64912            0   -6.0653617            0            0            0            0            0            0 
10103000     466.3517    78981.519    470.08283   -299.16015    716.02732    416.86717    954.04111   -299.16015            0   -6.6305327            0            0            0            0            0            0 
10104000     457.7182    88187.415    522.71501    -257.5634    796.19633    538.63293    1127.3148    -257.5634            0   -5.9383705            0            0            0            0            0            0 
10105000    450.93028    84745.781    502.18926   -273.29464    764.93164    491.63699    1048.9554   -273.29464            0   -6.1795353            0            0            0            0            0            0 
10106000    473.39005    84556.808    490.95884   -271.40397    747.82552    476.42155     1060.194   -271.40397            0   -6.1933457            0            0            0            0            0            0 
10107000    429.74953    84701.566    495.31955   -281.91679    754.46774    472.55094    1003.4143   -281.91679            0   -6.1827611            0            0            0            0            0            0 
10108000    450.38074    89919.513    501.89405   -252.35723    764.48197    512.12474    1102.7468   -252.35723            0   -5.8239811            0            0            0            0            0            0 
10109000    472.11616    80824.387    481.95577   -284.70965    734.11211    449.40246     1005.905   -284.70965            0   -6.4793507            0            0            0            0            0            0 
10110000    450.55736    86200.502    485.68962   -263.24581    739.79948    476.55367      1042.97   -263.24581            0   -6.0752494            0            0            0            0            0            0 
10111000    481.14292    86474.639    496.67916   -256.87561    756.53868    499.66307    1106.4535   -256.87561            0   -6.0559899            0            0            0            0            0            0 
10112000    558.07814    80750.208    523.45072   -278.37519    797.31697    518.94177    1176.1675   -278.37519            0   -6.4853027            0            0            0            0            0            0 
10113000    383.82315    88492.288    485.46171   -268.88595    739.45233    470.56638    965.91674   -268.88595            0   -5.9179117            0            0            0            0            0            0 
10114000    492.39641    84484.384    511.26661   -269.14319     778.7582    509.61502    1116.3055   -269.14319            0   -6.1986549            0            0            0            0            0            0 
10115000    550.22554    79789.376    514.25858   -287.81212    783.31555    495.50343    1135.7713   -287.81212            0   -6.5633994            0            0            0            0            0            0 
10116000    500.61707    84733.307    478.15078   -261.79247    728.31637     466.5239    1085.1606   -261.79247            0    -6.180445            0            0            0            0            0            0 
10117000    494.34854    83509.464    505.04304   -270.87335    769.27849    498.40514    1100.4722   -270.87335            0   -6.2710203            0            0            0            0            0            0 
10118000    498.74643    82224.903    495.03396   -274.55937    754.03273    479.47336    1077.5531   -274.55937            0   -6.3689895            0            0            0            0            0            0 
10119000     505.8275    85717.749    498.76759   -250.78106    759.71977    508.93871    1141.2764   -250.78106            0   -6.1094645            0            0            0            0            0            0 
10120000    499.89968    82883.044    460.04161   -262.21518     700.7326    438.51742    1042.7782   -262.21518            0   -6.3184159            0            0            0            0            0            0 
10121000    458.63735    84413.694    491.96242   -273.63982    749.35418    475.71436    1040.3369   -273.63982            0   -6.2038459            0            0            0            0            0            0 
10122000    506.60499    85380.379    526.29084   -256.92519    801.64302    544.71783    1175.5349   -256.92519            0   -6.1336053            0            0            0            0            0            0 
10123000    474.99634    80694.818    476.13615   -287.34849    725.24769     437.8992    996.89919   -287.34849            0   -6.4897543            0            0            0            0            0            0 
10124000    545.89954     79352.31    533.09537    -290.2317    812.00764    521.77594    1153.5302    -290.2317            0   -6.5995501            0            0            0            0            0            0 
10125000    491.12799    86779.348    516.41462   -262.65843    786.59961    523.94119    1145.5068   -262.65843            0   -6.0347255            0            0            0            0            0            0 
10126000     569.9535    80708.459    520.73225   -275.11814     793.1762    518.05806    1188.9219   -275.11814            0   -6.4886574            0            0            0            0            0            0 
10127000    504.63378    81356.205    493.29024   -276.14992     751.3767    475.22677    1073.9731   -276.14992            0   -6.4369958            0            0            0            0            0            0 
10128000    468.45251    88042.669    497.00992   -255.21052     757.0425    501.83199    1103.3306   -255.21052            0   -5.9481334            0            0            0            0            0            0 
10129000    501.38108    85410.837    502.82644   -264.71762    765.90218    501.18456    1125.7196   -264.71762            0    -6.131418            0            0            0            0            0            0 
10130000    564.80216    81325.792     495.1087   -280.04708    754.14658    474.09949    1143.9849   -280.04708            0    -6.439403            0            0            0            0            0            0 
10131000    455.66054    87739.412    471.35418   -265.60028    717.96383    452.36354    1035.4219   -265.60028            0   -5.9686922            0            0            0            0            0            0 
10132000    499.02013    84709.284     524.7024   -274.94375    799.22351    524.27976    1140.7682   -274.94375            0   -6.1821978            0            0            0            0            0            0 
10133000    451.11608    82305.289    489.75653   -283.19454    745.99418    462.79963    1004.2915   -283.19454            0    -6.362769            0            0            0            0            0            0 
10134000    549.95257    85521.157    505.38585   -253.49695    769.80067    516.30372    1202.2257   -253.49695            0   -6.1235087            0            0            0            0            0            0 
10135000    560.60586    83606.034    523.40472   -260.86211    797.24689    536.38478    1219.9361   -260.86211            0   -6.2637769            0            0            0            0            0            0 
10136000    533.97042    79882.917    505.62524   -279.46474     770.1653    490.70056    1112.7817   -279.46474            0   -6.5557139            0            0            0            0            0            0 
10137000    439.46467    85377.281    484.20109   -265.95302    737.53216    471.57914    1018.7742   -265.95302            0   -6.1338279            0            0            0            0            0            0 
10138000    445.28459    85974.371    531.32754   -268.58392    809.31489    540.73096    1099.0502   -268.58392            0   -6.0912286            0            0            0            0            0            0 
10139000    501.86201    85095.605    503.73534   -264.89628    767.28661    502.39033    1125.2172   -264.89628            0   -6.1541315            0            0            0            0            0            0 
10140000    530.33122    78170.821    485.68484   -282.85423    739.79221    456.93798    1061.5374   -282.85423            0    -6.699297            0            0            0            0            0            0 
10141000    442.40985    83934.332    516.25773   -277.45598    786.36064    508.90466    1050.4568   -277.45598            0    -6.239277            0            0            0            0            0            0 
10142000     420.6609    86372.419    487.81167   -269.24747    743.03178    473.78431    1003.6711   -269.24747            0   -6.0631571            0            0            0            0            0            0 
10143000     467.0703    80541.743    465.07166   -290.58687    708.39433    417.80747    966.43698   -290.58687            0   -6.5020886            0            0            0            0            0            0 
10144000    499.98019    83522.824    493.43573   -267.43443    751.59831    484.16387    1093.1871   -267.43443            0   -6.2700172            0            0            0            0            0            0 
10145000    501.97172    83536.662    520.62685   -265.99262    793.01566    527.02304    1138.5734   -265.99262            0   -6.2689786            0            0            0            0            0            0 
10146000     555.6929    83061.383    524.15485   -274.76836    798.38949    523.62113    1196.7681   -274.76836            0   -6.3048498            0            0            0            0            0            0 
10147000    467.51448    86127.179     514.5877   -268.35503    783.81686    515.46182    1102.6958   -268.35503            0   -6.0804214            0            0            0            0            0            0 
10148000    421.92462     87505.44    484.37554    -269.4544    737.79788    468.34348     1006.794    -269.4544            0   -5.9846513            0            0            0            0            0            0 
10149000    461.49311    81581.136    473.80525   -284.59721    721.69729    437.10008    986.17405   -284.59721            0    -6.419248            0            0            0            0            0            0 
10150000    473.60689    84789.591    527.93704   -267.31647     804.1505    536.83403    1122.4817   -267.31647            0   -6.1763424            0            0            0            0            0            0 
10151000    496.83398    86269.572     512.6727   -262.84845    780.89995     518.0515    1143.1448   -262.84845            0   -6.0703853            0            0            0            0            0            0 
10152000    436.62594     84543.61    483.99732   -273.21039    737.22178    464.01139    1002.3632   -273.21039            0   -6.1943126            0            0            0            0            0            0 
10153000    463.73249    80981.328    478.52974    -276.5988     728.8936     452.2948     999.9766    -276.5988            0   -6.4667937            0            0            0            0            0            0 
10154000    515.31656    84440.146     514.0331    -262.7262    782.97211     520.2459    1154.8443    -262.7262            0   -6.2019024            0            0            0            0            0            0 
10155000    487.39084    87421.905    515.24907   -260.05145    784.82426    524.77281     1146.176   -260.05145            0   -5.9903699            0            0            0            0            0            0 
10156000    500.54944    82470.711    517.59105   -277.77877    788.39155    510.61278     1112.649   -277.77877            0   -6.3500064            0            0            0            0            0            0 
10157000    473.51811     86298.76    491.88536    -258.6628     749.2368      490.574    1086.5339    -258.6628            0   -6.0683322            0            0            0            0            0            0 
10158000    401.31081    86473.447    460.46387   -265.74199    701.37578    435.63379     941.7375   -265.74199            0   -6.0560734            0            0            0            0            0            0 
10159000    493.30916    82866.341    465.64714   -274.96772     709.2709    434.30318    1030.4775   -274.96772            0   -6.3196895            0            0            0            0            0            0 
10160000    394.74718    87005.941    489.18117   -272.52965    745.11779    472.58814    973.47983   -272.52965            0    -6.019009            0            0            0            0            0            0 
10161000    536.79817    83004.731    515.53173   -272.81734     785.2548    512.43746    1162.2525   -272.81734            0    -6.309153            0            0            0            0            0            0 
10162000    481.05075    83672.802    511.03756   -268.83298    778.40931    509.57633    1096.5939   -268.83298            0   -6.2587786            0            0            0            0            0            0 
10163000    499.52571    82854.448    523.21686    -282.1767    796.96075    514.78405    1118.3845    -282.1767            0   -6.3205967            0            0            0            0            0            0 
10164000    491.06114    82639.627    500.56253   -277.21118    762.45382    485.24263    1077.0765   -277.21118            0    -6.337027            0            0            0            0            0            0 
10165000    406.74173    85466.227    474.18684   -277.32678    722.27852    444.95174    951.92979   -277.32678            0   -6.1274443            0            0            0            0            0            0 
10166000    485.24755    87476.782    510.00868   -264.52953    776.84213     512.3126    1131.3716   -264.52953            0   -5.9866119            0            0            0            0            0            0 
10167000    517.66472    85091.038    524.22927   -263.62476    798.50284    534.87808    1177.2821   -263.62476            0   -6.1544619            0            0            0            0            0            0 
10168000    492.38418    81746.476    493.37015   -276.52021    751.49842    474.97822     1061.993   -276.52021            0   -6.4062645            0            0            0            0            0            0 
10169000    415.78952    88034.832    500.14197   -262.56572    761.81322     499.2475    1033.0787   -262.56572            0    -5.948663            0            0            0            0            0            0 
10170000    555.49326    80076.154    491.21987   -277.17989    748.22312    471.04323    1119.7641   -277.17989            0   -6.5398938            0            0            0            0            0            0 
10171000    466.27091    86274.671    502.38319     -267.485    765.22703    497.74203    1084.4169     -267.485            0   -6.0700266            0            0            0            0            0            0 
10172000    500.43739     85221.59    481.30784   -252.82099    733.12519     480.3042    1102.2825   -252.82099            0   -6.1450338            0            0            0            0            0            0 
10173000    464.27858    85177.133    478.31843   -265.03807    728.57174    463.53367    1040.2703   -265.03807            0    -6.148241            0            0            0            0            0            0 
10174000     461.7939    87584.017    490.49874   -254.05104    747.12471    493.07367    1082.9337   -254.05104            0   -5.9792821            0            0            0            0            0            0 
10175000    465.50503    85589.118     543.9526    -270.9461     828.5453     557.5992    1138.6563    -270.9461            0   -6.1186464            0            0            0            0            0            0 
10176000    583.03699    78521.349    473.78854   -276.41041    721.67183    445.26142    1112.9282   -276.41041            0   -6.6693906            0            0            0            0            0            0 
10177000    465.18489    86849.726    487.75491   -264.77537    742.94532    478.16995    1067.3797   -264.77537            0   -6.0298353            0            0            0            0            0            0 
10178000    499.08881    82564.316    479.50232   -273.75979    730.37503    456.61523     1057.576   -273.75979            0   -6.3428073            0            0            0            0            0            0 
10179000    491.36147    80258.051    472.90211   -288.53491    720.32162    431.78671    1006.9161   -288.53491            0   -6.5250718            0            0            0            0            0            0 
10180000    423.86281    90341.536     511.9723   -260.66169     779.8331     519.1714     1077.627   -260.66169            0   -5.7967748            0            0            0            0            0            0 
10181000    495.28461    87122.902    528.50627   -257.12086    805.01754    547.89668    1177.2044   -257.12086            0   -6.0109286            0            0            0            0            0            0 
10182000     596.0204    83976.495    486.73028   -245.46501     741.3846     495.9196    1225.8724   -245.46501            0   -6.2361443            0            0            0            0            0            0 
10183000    507.26803    85775.234    526.48847   -266.34843    801.94404    535.59561    1170.1594   -266.34843            0   -6.1053701            0            0            0            0            0            0 
10184000      585.829    83276.741    514.54351   -256.05213    783.74955    527.69742    1239.1902   -256.05213            0   -6.2885451            0            0            0            0            0            0 
10185000    498.90012    81554.008    496.98889   -268.25458    757.01047    488.75589    1082.1385   -268.25458            0   -6.4213833            0            0            0            0            0            0 
10186000    600.00051     80641.95    490.05455   -270.64392    746.44811    475.80419    1181.4529   -270.64392            0   -6.4940089            0            0            0            0            0            0 
10187000    474.61196    90143.765    506.73898   -243.80201    771.86175    528.05974    1152.0104   -243.80201            0   -5.8094927            0            0            0            0            0            0 
10188000    515.89905    82831.538    498.20071   -277.26008    758.85631    481.59623     1104.809   -277.26008            0   -6.3223448            0            0            0            0            0            0 
10189000    551.03123    83826.121    491.44007   -257.09769    748.55854    491.46085    1165.1064   -257.09769            0   -6.2473312            0            0            0            0            0            0 
10190000    590.62222    81944.868     514.4522   -263.06107    783.61046     520.5494    1226.3913   -263.06107            0   -6.3907546            0            0            0            0            0            0 
10191000    553.08264    77582.736    495.96329   -290.45859    755.44827    464.98968    1090.7831   -290.45859            0   -6.7500783            0            0            0            0            0            0 
10192000    496.76413     86474.32      511.524   -257.88332    779.15026    521.26694    1147.7557   -257.88332            0   -6.0560123            0            0            0            0            0            0 
10193000    535.55107    81080.809    501.96813   -280.74038    764.59482    483.85444    1117.1331   -280.74038            0   -6.4588594            0            0            0            0            0            0 
10194000    493.37028    86816.268     540.0253   -268.74533    822.56327    553.81794     1178.487   -268.74533            0   -6.0321592            0            0            0            0            0            0 
10195000    480.78751    84825.233    521.98435   -268.44957     795.0834    526.63383    1121.4108   -268.44957            0   -6.1737472            0            0            0            0            0            0 
10196000    479.20744     82489.24    486.71956   -274.03876    741.36827    467.32952    1043.8261   -274.03876            0   -6.3485801            0            0            0            0            0            0 
10197000    570.97686    79788.139    518.76057   -276.14701    790.17296    514.02595    1178.4307   -276.14701            0   -6.5635012            0            0            0            0            0            0 
10198000    460.10691    90259.044    513.31089   -250.87704    781.87203    530.99499    1136.6501   -250.87704            0   -5.8020728            0            0            0            0            0            0 
10199000    459.73012    87334.287    496.39021   -266.88482    756.09856    489.21374    1074.7633   -266.88482            0   -5.9963797            0            0            0            0            0            0 
10200000    527.27808    82358.217    476.33457   -267.45789    725.54993    458.09203    1091.4111   -267.45789            0     -6.35868            0            0            0            0            0            0 
10201000    427.24448    86156.145    481.80177   -263.62946    733.87754    470.24808    1007.0803   -263.62946            0   -6.0783772            0            0            0            0            0            0 
10202000    487.33982     83684.05    490.01678   -271.66457    746.39058    474.72602     1069.498   -271.66457            0   -6.2579374            0            0            0            0            0            0 
10203000    458.17893    90593.959     493.6742   -247.40241    751.96155    504.55914    1109.9143   -247.40241            0   -5.7806232            0            0            0            0            0            0 
10204000    676.89312    78601.932     508.6338    -270.7896    774.74792    503.95832    1279.9002    -270.7896            0   -6.6625531            0            0            0            0            0            0 
10205000    484.25287    82740.448    505.41224    -286.0981    769.84086    483.74276    1068.0832    -286.0981            0   -6.3293052            0            0            0            0            0            0 
10206000     509.5879    86418.931    525.02729   -260.17003    799.71839    539.54835     1181.798   -260.17003            0   -6.0598938            0            0            0            0            0            0 
10207000    502.30845     81694.27    471.61178   -278.50591     718.3562    439.85029    1038.3142   -278.50591            0   -6.4103584            0            0            0            0            0            0 
10208000    508.52613    84764.052    487.67599   -263.82312     742.8251    479.00198    1107.6403   -263.82312            0   -6.1782033            0            0            0            0            0            0 
10209000    499.92673    87991.002    517.10361    -257.4416    787.64909    530.20749    1171.7427    -257.4416            0   -5.9516261            0            0            0            0            0            0 
10210000    547.78471    83472.318    489.81348   -255.45866    746.08092    490.62226    1157.4724   -255.45866            0   -6.2738109            0            0            0            0            0            0 
10211000    520.64118    81747.071    490.51592   -267.88708    747.15088    479.26379    1099.9707   -267.88708            0   -6.4062178            0            0            0            0            0            0 
10212000    449.09386    90629.416    489.99376   -247.67726    746.35553    498.67827    1092.2623   -247.67726            0   -5.7783617            0            0            0            0            0            0 
10213000    481.86973    80911.947    466.71211   -280.41589    710.89305    430.47716    999.09201   -280.41589            0   -6.4723389            0            0            0            0            0            0 
10214000     557.1955    82233.864    498.42453   -261.48084    759.19722    497.71638     1165.959   -261.48084            0   -6.3682955            0            0            0            0            0            0 
10215000    473.19876    86217.146    504.31828    -263.8382    768.17455    504.33635    1099.3311    -263.8382            0   -6.0740765            0            0            0            0            0            0 
10216000    439.01778    85140.957    483.83468   -272.96185    736.97405     464.0122    1009.1377   -272.96185            0   -6.1508534            0            0            0            0            0            0 
10217000    502.24414     85247.66    503.44915   -261.58502    766.85069    505.26567    1129.6805   -261.58502            0   -6.1431545            0            0            0            0            0            0 
10218000    527.50202     79632.42    519.99286   -297.31941    792.04997    494.73056    1107.3488   -297.31941            0   -6.5763359            0            0            0            0            0            0 
10219000     455.8309    88692.973    478.25585     -253.729    728.47641    474.74741    1064.3629     -253.729            0   -5.9045213            0            0            0            0            0            0 
10220000    482.30684     84249.81     506.6877   -269.39049    771.78363    502.39314    1095.0021   -269.39049            0   -6.2159136            0            0            0            0            0            0 
10221000    510.96296    82066.234    515.79495   -274.60916    785.65574    511.04658    1122.5935   -274.60916            0   -6.3813035            0            0            0            0            0            0 
10222000    470.66411     81723.76    498.83452   -293.94419    759.82171    465.87752    1026.8419   -293.94419            0   -6.4080452            0            0            0            0            0            0 
10223000     423.7867    82677.852    503.01378   -294.64401    766.18754    471.54353    982.53353   -294.64401            0   -6.3340971            0            0            0            0            0            0 
10224000    502.41875    84722.904    515.34219   -265.55259     784.9661    519.41351    1140.2004   -265.55259            0   -6.1812039            0            0            0            0            0            0 
10225000    434.61718    83088.518    503.63363   -273.92118    767.13169     493.2105    1019.8626   -273.92118            0   -6.3027908            0            0            0            0            0            0 
10226000    446.01755    85625.269    473.26467   -264.07732    720.87387    456.79656     1013.764   -264.07732            0   -6.1160631            0            0            0            0            0            0 
10227000    525.24543    86922.455    534.42039   -255.41672    814.02589    558.60917    1224.4496   -255.41672            0   -6.0247901            0            0            0            0            0            0 
10228000    410.60258    81713.812    453.25394   -295.99912    690.39365    394.39453    883.71461   -295.99912            0   -6.4088253            0            0            0            0            0            0 
10229000    486.07473    85593.979    483.63135   -259.81088    736.66434    476.85346    1083.6207   -259.81088            0   -6.1182989            0            0            0            0            0            0 
10230000    488.37922    87210.664    517.15886   -256.22806    787.73324    531.50519     1152.664   -256.22806            0   -6.0048797            0            0            0            0            0            0 
10231000    451.59844    81226.754    483.59679   -281.85863    736.61169    454.75306    989.72058   -281.85863            0   -6.4472544            0            0            0            0            0            0 
10232000    515.65475    80736.689    484.20287   -275.10446    737.53487    462.43041    1069.5942   -275.10446            0   -6.4863887            0            0            0            0            0            0 
10233000    437.33143     86689.91    499.15525   -263.95835    760.31025     496.3519    1049.2628   -263.95835            0   -6.0409516            0            0            0            0            0            0 
10234000    510.64601    82485.276    499.83478   -274.30173    761.34531    487.04357    1101.3319   -274.30173            0   -6.3488852            0            0            0            0            0            0 
10235000    498.63373    83127.022    489.27074   -265.93711    745.25422    479.31711    1083.8219   -265.93711            0   -6.2998714            0            0            0            0            0            0 
10236000    537.56378    83684.166    510.44999   -265.29482    777.51433    512.21951     1168.288   -265.29482            0   -6.2579287            0            0            0            0            0            0 
10237000    562.78088    81250.185    501.88431   -275.57641    764.46714    488.89073    1155.7583   -275.57641            0   -6.4453951            0            0            0            0            0            0 
10238000    495.17668     84738.08    523.67925   -259.02701    797.66506    538.63805    1150.5863   -259.02701            0   -6.1800969            0            0            0            0            0            0 
10239000    423.71528    83048.042    474.71252   -278.10436    723.07923    444.97487    958.16632   -278.10436            0   -6.3058627            0            0            0            0            0            0 
10240000    507.38155    81640.488    480.60734   -272.85874    732.05819    459.19945    1063.3096   -272.85874            0   -6.4145813            0            0            0            0            0            0 
10241000    454.14965    85365.218     481.6013   -262.77654    733.57218    470.79564    1036.1957   -262.77654            0   -6.1346946            0            0            0            0            0            0 
10242000    521.09015    84822.272    513.20865   -258.73975     781.7163    522.97655    1167.5889   -258.73975            0   -6.1739627            0            0            0            0            0            0 
10243000    480.39741    83387.411    486.69501   -275.79456    741.33089    465.53633    1049.7572   -275.79456            0   -6.2801991            0            0            0            0            0            0 
10244000    449.93861    82363.696     501.1157   -296.27897    763.29639    467.01743    1007.4792   -296.27897            0    -6.358257            0            0            0            0            0            0 
10245000    439.42926    87314.999    504.41424   -272.86818    768.32071    495.45253    1055.0216   -272.86818            0   -5.9977043            0            0            0            0            0            0 
10246000    467.30837    81478.892    474.43458   -279.24815    722.65588    443.40774    998.70377   -279.24815            0   -6.4273032            0            0            0            0            0            0 
10247000    453.63254    85605.489    499.62833   -264.40633    761.03084    496.62451    1062.9703   -264.40633            0   -6.1174763            0            0            0            0            0            0 
10248000    421.24602     87585.32    489.06118    -264.4412    744.93502    480.49382    1018.5691    -264.4412            0   -5.9791931            0            0            0            0            0            0 
10249000    530.03746    80511.887    497.84913   -276.30167    758.32077     482.0191    1104.3802   -276.30167            0   -6.5044997            0            0            0            0            0            0 
10250000    447.86803    86165.604    498.33372   -267.07161     759.0589    491.98729    1054.7948   -267.07161            0   -6.0777099            0            0            0            0            0            0 
10251000    470.82678    85010.891    496.05838   -273.27511    755.59311      482.318    1066.0475   -273.27511            0   -6.1602642            0            0            0            0            0            0 
10252000    469.69962    85630.802    490.81827   -265.79916    747.61141    481.81224    1068.3907   -265.79916            0   -6.1156679            0            0            0            0            0            0 
10253000    502.62139    87759.812    508.47066   -257.74705    774.49942    516.75237    1160.0509   -257.74705            0   -5.9673048            0            0            0            0            0            0 
10254000    452.68963     81197.69    517.21216    -291.2841    787.81442    496.53032    1032.5986    -291.2841            0   -6.4495621            0            0            0            0            0            0 
10255000    501.85625    80208.417    481.37354   -284.81518    733.22525    448.41007    1035.4602   -284.81518            0   -6.5291096            0            0            0            0            0            0 
10256000    453.80449    85988.479    473.82966   -268.04351    721.73447    453.69097    1022.7862   -268.04351            0   -6.0902292            0            0            0            0            0            0 
10257000    540.99247    83190.146    517.10227   -272.20635    787.64704    515.44069     1171.796   -272.20635            0    -6.295091            0            0            0            0            0            0 
10258000    494.63018    85992.733    501.38777   -257.87015    763.71081    505.84066    1126.1642   -257.87015            0   -6.0899279            0            0            0            0            0            0 
10259000    513.06968    87182.373    499.43488   -251.41259    760.73618    509.32359     1161.674   -251.41259            0   -6.0068283            0            0            0            0            0            0 
10260000    612.44222    81614.496     533.4975   -266.10217    812.62016    546.51799    1275.4857   -266.10217            0   -6.4166242            0            0            0            0            0            0 
10261000    432.93648    87979.297    506.38021   -262.02893    771.31526    509.28632    1064.7818   -262.02893            0   -5.9524179            0            0            0            0            0            0 
10262000    394.69482    83574.299    496.95613   -290.20815    756.96056    466.75242    947.82439   -290.20815            0   -6.2661554            0            0            0            0            0            0 
10263000    503.47628    84352.572    485.33866   -266.87138     739.2649    472.39352    1091.7679   -266.87138            0   -6.2083412            0            0            0            0            0            0 
10264000    580.27892    84800.531    504.97345   -255.94976     769.1725    513.22274    1230.8704   -255.94976            0   -6.1755456            0            0            0            0            0            0 
10265000    455.29637    85510.542    482.80898   -267.24293    735.41171    468.16878    1035.9614   -267.24293            0   -6.1242688            0            0            0            0            0            0 
10266000    513.40995    84969.528    474.54973   -252.26855    722.83127    470.56272     1106.777   -252.26855            0    -6.163263            0            0            0            0            0            0 
10267000    504.26832    78336.607     512.2861   -300.55676    780.31108    479.75432    1055.8602   -300.55676            0   -6.6851191            0            0            0            0            0            0 
10268000     458.4427    88014.134    482.39318   -258.89617    734.77837     475.8822    1064.3374   -258.89617            0   -5.9500619            0            0            0            0            0            0 
10269000    606.03916    84499.629    498.74953   -248.63048    759.69226    511.06178    1257.9083   -248.63048            0   -6.1975366            0            0            0            0            0            0 
10270000    489.56531    85754.022    511.49359   -268.17563    779.10394    510.92831    1123.1956   -268.17563            0   -6.1068802            0            0            0            0            0            0 
10271000    584.45277    81091.939     486.5163   -266.48088    741.05868    474.57779    1165.7766   -266.48088            0   -6.4579729            0            0            0            0            0            0 
10272000    451.33245    89546.544    501.63107   -250.61823    764.08141    513.46318    1102.8783   -250.61823            0   -5.8482385            0            0            0            0            0            0 
10273000    553.42473    82617.667    499.67222   -272.57277     761.0977    488.52493     1155.343   -272.57277            0   -6.3387114            0            0            0            0            0            0 
10274000    565.19353    85480.809    491.76126   -245.34967    749.04777    503.69809    1208.2966   -245.34967            0   -6.1263991            0            0            0            0            0            0 
10275000    594.31418    86275.764    513.04563   -252.07262    781.46799    529.39537    1277.1873   -252.07262            0   -6.0699496            0            0            0            0            0            0 
10276000    523.48908    84031.069    482.15012   -263.87212    734.40814    470.53602    1112.0755   -263.87212            0   -6.2320943            0            0            0            0            0            0 
10277000    611.38318    81791.328    505.40573   -258.77952    769.83094    511.05142    1240.3353   -258.77952            0   -6.4027514            0            0            0            0            0            0 
10278000    451.77644    89428.279    490.74765   -246.07555    747.50385     501.4283     1090.644   -246.07555            0   -5.8559725            0            0            0            0            0            0 
10279000    460.53087    83426.851    488.07739   -289.28224    743.43652    454.15428    1014.4799   -289.28224            0   -6.2772301            0            0            0            0            0            0 
10280000    520.21824    85052.197    499.21819   -258.84204    760.40612    501.56408    1146.8423   -258.84204            0   -6.1572724            0            0            0            0            0            0 
10281000    499.96481    83283.701    489.39956   -268.14845    745.45044      477.302    1084.5629   -268.14845            0   -6.2880196            0            0            0            0            0            0 
10282000    442.44857     80873.22    456.25377   -292.23316    694.96297    402.72981    924.57708   -292.23316            0   -6.4754383            0            0            0            0            0            0 
10283000     450.4672    82856.701    496.34798   -280.64328    756.03424    475.39096    1019.7265   -280.64328            0   -6.3204248            0            0            0            0            0            0 
10284000    465.43501    84023.806    466.80609   -261.70838    711.03621    449.32783    1019.6724   -261.70838            0    -6.232633            0            0            0            0            0            0 
10285000    594.51386    77192.262    490.97854   -289.26223    747.85553    458.59331    1127.8792   -289.26223            0   -6.7842233            0            0            0            0            0            0 
10286000    525.65335    85109.676    522.60792   -252.28421    796.03322    543.74901    1196.2096   -252.28421            0   -6.1531141            0            0            0            0            0            0 
10287000    524.37289    82762.506     506.3708   -274.14438    771.30094    497.15655    1130.0779   -274.14438            0   -6.3276183            0            0            0            0            0            0 
10288000    446.84678    85727.557    484.82433   -274.30016    738.48148    464.18132    1022.8508   -274.30016            0   -6.1087655            0            0            0            0            0            0 
10289000    503.17187    85021.436    483.11979   -267.83357    735.88514    468.05157    1091.9598   -267.83357            0   -6.1595001            0            0            0            0            0            0 
10290000    571.40878    83401.036    513.95798   -258.00143    782.85767    524.85624    1219.8714   -258.00143            0   -6.2791731            0            0            0            0            0            0 
10291000    506.42072    85506.235    519.07928   -264.35697    790.65841    526.30145    1157.8186   -264.35697            0   -6.1245773            0            0            0            0            0            0 
10292000    455.46961    81225.972    494.97626   -288.29899    753.94484    465.64586     1005.194   -288.29899            0   -6.4473164            0            0            0            0            0            0 
10293000    455.98765    88058.911    496.26343   -260.16576    755.90545    495.73969    1081.3413   -260.16576            0   -5.9470364            0            0            0            0            0            0 
10294000    480.15056    86212.781    531.21556   -267.11684    809.14432    542.02748    1145.7328   -267.11684            0   -6.0743841            0            0            0            0            0            0 
10295000    449.01318    82534.662    496.89573   -282.83191    756.86857    474.03666    1014.5064   -282.83191            0   -6.3450862            0            0            0            0            0            0 
10296000    452.23225    85347.676     492.7338   -273.14819    750.52913    477.38094    1040.2782   -273.14819            0   -6.1359555            0            0            0            0            0            0 
10297000    417.98214    88751.787    518.37214   -267.70976    789.58131    521.87155    1062.8883   -267.70976            0   -5.9006085            0            0            0            0            0            0 
10298000    465.09967    81602.589    485.52213   -291.66047    739.54437     447.8839    1001.3944   -291.66047            0   -6.4175604            0            0            0            0            0            0 
10299000    445.79293    85949.399    484.42789   -272.82554    737.87763    465.05209    1023.8463   -272.82554            0   -6.0929984            0            0            0            0            0            0 
10300000    465.72131    90468.174     533.2312   -254.86894    812.21453    557.34559    1171.8116   -254.86894            0   -5.7886605            0            0            0            0            0            0 
10301000    581.92179    81065.895    488.22353   -268.81853    743.65912    474.84059    1162.8251   -268.81853            0   -6.4600477            0            0            0            0            0            0 
10302000     428.7935    85282.175     537.2663   -279.68928    818.36076    538.67148    1071.9847   -279.68928            0   -6.1406683            0            0            0            0            0            0 
10303000    388.19569    85300.366     490.1892   -279.70298    746.65322    466.95023    949.87279   -279.70298            0   -6.1393587            0            0            0            0            0            0 
10304000    430.83156    81435.982    483.71771   -291.46629    736.79589     445.3296    957.01113   -291.46629            0   -6.4306899            0            0            0            0            0            0 
10305000    446.31289    86677.708    502.08305   -270.25785    764.76985      494.512    1058.6986   -270.25785            0    -6.041802            0            0            0            0            0            0 
10306000    476.22186     82451.06    485.82858   -283.49285    740.01115    456.51831     1029.158   -283.49285            0   -6.3515199            0            0            0            0            0            0 
10307000    518.22334    81823.827     493.5256   -275.83452    751.73521    475.90069    1094.3052   -275.83452            0   -6.4002084            0            0            0            0            0            0 
10308000    538.01609    88278.058    497.09062   -254.07085    757.16542    503.09457    1195.7607   -254.07085            0    -5.932273            0            0            0            0            0            0 
10309000    588.09396    84935.039    507.28108   -246.50902    772.68747    526.17845    1254.6448   -246.50902            0   -6.1657657            0            0            0            0            0            0 
10310000    534.14892    82416.052     496.3092    -269.3304    755.97516    486.64476     1128.667    -269.3304            0   -6.3542178            0            0            0            0            0            0 
10311000      529.353    85881.798    500.72208   -252.49606    762.69684    510.20079    1173.2143   -252.49606            0   -6.0977944            0            0            0            0            0            0 
10312000    411.41188    86765.821    514.09678   -271.13662    783.06909    511.93247    1032.5292   -271.13662            0   -6.0356664            0            0            0            0            0            0 
10313000    577.55005    80391.826    521.57243   -275.08618    794.45596    519.36978    1196.5081   -275.08618            0   -6.5142139            0            0            0            0            0            0 
10314000     457.3715     87363.92    519.60955   -262.59974    791.46612    528.86638    1111.6094   -262.59974            0   -5.9943458            0            0            0            0            0            0 
10315000    470.23348    82228.528    482.11799   -281.12993     734.3592    453.22926    1017.1421   -281.12993            0   -6.3687087            0            0            0            0            0            0 
10316000    524.91991    79486.689    518.38354   -297.11771    789.59867    492.48096    1100.9848   -297.11771            0    -6.588393            0            0            0            0            0            0 
10317000    531.33996    83899.771     506.2306   -273.86313    771.08738    497.22425    1147.3676   -273.86313            0   -6.2418471            0            0            0            0            0            0 
10318000    508.97954     84769.06    476.18819   -258.58539    725.32696    466.74157    1095.9776   -258.58539            0   -6.1778383            0            0            0            0            0            0 
10319000     430.0453    82429.069    485.90263    -282.0975    740.12394    458.02645    975.00258    -282.0975            0   -6.3532144            0            0            0            0            0            0 
10320000    476.67391    85837.532    503.92795   -263.98445       767.58    503.59555    1100.3209   -263.98445            0    -6.100939            0            0            0            0            0            0 
10321000    515.12744    87282.593    501.93588   -250.16858    764.54568    514.37711    1170.0968   -250.16858            0   -5.9999311            0            0            0            0            0            0 
10322000    589.81308    81062.226    534.50022   -274.54731    814.14749    539.60018    1236.8828   -274.54731            0     -6.46034            0            0            0            0            0            0 
10323000     477.0585    79587.249    510.97349   -295.11368    778.31173    483.19805    1036.9191   -295.11368            0   -6.5800684            0            0            0            0            0            0 
10324000    429.65623    90239.059    467.10889    -248.3435    711.49744    463.15394    1028.6005    -248.3435            0   -5.8033578            0            0            0            0            0            0 
10325000    477.20712    83929.327    494.95354   -273.89435    753.91023    480.01588    1064.1284   -273.89435            0    -6.239649            0            0            0            0            0            0 
10326000    433.17483    85209.103    511.10509   -280.87522    778.51217    497.63695    1035.9378   -280.87522            0   -6.1459343            0            0            0            0            0            0 
10327000    574.58827    82994.648    482.19398   -251.37995    734.47494    483.09499    1178.5719   -251.37995            0   -6.3099195            0            0            0            0            0            0 
10328000    395.10005    88576.451    480.77446   -268.44092    732.31274    463.87183    974.26076   -268.44092            0   -5.9122886            0            0            0            0            0            0 
10329000    567.96898    80724.961     524.4406   -285.37466    798.82474    513.45007    1182.1147   -285.37466            0    -6.487331            0            0            0            0            0            0 
10330000     480.2868    86994.722    445.09694   -259.40762    677.96895    418.56134     1027.915   -259.40762            0   -6.0197853            0            0            0            0            0            0 
10331000    466.93513    84701.293     480.1745   -271.71632    731.39888    459.68257    1036.4789   -271.71632            0    -6.182781            0            0            0            0            0            0 
10332000    496.32034    83846.793     499.0916   -272.60193    760.21329    487.61136    1094.5215   -272.60193            0    -6.245791            0            0            0            0            0            0 
10333000    481.24974    85886.925    519.02202   -267.27663     790.5712    523.29457    1126.0949   -267.27663            0   -6.0974303            0            0            0            0            0            0 
10334000    520.80537    84333.004    496.53653   -266.11238    756.32143    490.20905     1130.753   -266.11238            0   -6.2097817            0            0            0            0            0            0 
10335000    460.53799    88558.048    492.61172   -251.88209    750.34319     498.4611    1093.2589   -251.88209            0   -5.9135173            0            0            0            0            0            0 
10336000    557.40938    79700.852    512.25843   -278.98816    780.26893    501.28078    1149.1885   -278.98816            0   -6.5706894            0            0            0            0            0            0 
10337000    506.32442    85324.626    498.50335   -253.57435    759.31729    505.74293    1135.7989   -253.57435            0   -6.1376131            0            0            0            0            0            0 
10338000    452.60528    84137.364    483.54519   -277.71737     736.5331    458.81573    1014.1883   -277.71737            0   -6.2242209            0            0            0            0            0            0 
10339000    467.22901    81283.881    494.51323   -292.76416    753.23956    460.47539    1014.3483   -292.76416            0   -6.4427232            0            0            0            0            0            0 
10340000    518.29367    80683.054    491.94791   -283.45672    749.33208    465.87536    1075.7409   -283.45672            0   -6.4907006            0            0            0            0            0            0 
10341000    494.43308    89444.032    505.67338    -256.6975    770.23862    513.54112    1158.5041    -256.6975            0   -5.8549412            0            0            0            0            0            0 
10342000    455.82798    89307.241    495.41636   -258.68069    754.61519    495.93451    1089.6297   -258.68069            0   -5.8639091            0            0            0            0            0            0 
10343000    501.38337    82284.054    507.91787   -274.11079    773.65742    499.54664     1101.221   -274.11079            0   -6.3644111            0            0            0            0            0            0 
10344000    515.35727    83056.115    494.70099    -265.2169    753.52555    488.30865    1112.5548    -265.2169            0   -6.3052497            0            0            0            0            0            0 
10345000    453.04546    88880.411    484.63227   -254.49097    738.18893    483.69797    1070.9489   -254.49097            0   -5.8920694            0            0            0            0            0            0 
10346000     524.8049    86244.209    511.26659   -251.82875    778.75817    526.92941    1187.0203   -251.82875            0   -6.0721705            0            0            0            0            0            0 
10347000    574.25571    79673.224    464.73847    -273.6595    707.88683    434.22733     1101.485    -273.6595            0   -6.5729679            0            0            0            0            0            0 
10348000    488.62549     87892.63    506.32517   -259.85415    771.23142    511.37727    1137.7091   -259.85415            0   -5.9582873            0            0            0            0            0            0 
10349000    557.57619    83272.885    516.36009   -254.54708    786.51655    531.96948    1209.1177   -254.54708            0   -6.2888363            0            0            0            0            0            0 
10350000    485.25667    85394.518    519.96568   -271.13416    792.00857    520.87441    1125.2089   -271.13416            0   -6.1325898            0            0            0            0            0            0 
10351000    504.00602    86883.641    483.69582   -252.07673    736.76253     484.6858    1123.3163   -252.07673            0   -6.0274816            0            0            0            0            0            0 
10352000    504.00726     84670.52    500.67993   -261.93705    762.63263    500.69558    1123.0602   -261.93705            0   -6.1850281            0            0            0            0            0            0 
10353000    428.52142    86936.049    495.29708   -267.36989    754.43351    487.06362    1030.3744   -267.36989            0    -6.023848            0            0            0            0            0            0 
[...]
14939000    448.73888      82458.9     493.4152   -283.53923    751.56704    468.02781    1007.6715   -283.53923            0    -6.350916            0            0            0            0            0            0 
14940000    568.96745    81892.258    487.89885   -264.99952    743.16457    478.16505    1157.6912   -264.99952            0   -6.3948602            0            0            0            0            0            0 
14941000    521.97318      86276.1    466.31619   -257.59181       710.29    452.69819    1109.4701   -257.59181            0    -6.069926            0            0            0            0            0            0 
14942000    467.62145    86991.722    505.80218    -258.6775    770.43481    511.75731    1105.0216    -258.6775            0   -6.0199928            0            0            0            0            0            0 
14943000    595.69691    83942.595    504.01963   -247.16699    767.71964    520.55266    1249.8147   -247.16699            0   -6.2386628            0            0            0            0            0            0 
14944000    519.56607    87909.599    508.10392   -244.60512    773.94081    529.33569    1195.4564   -244.60512            0   -5.9571372            0            0            0            0            0            0 
14945000    603.27378    79937.395    525.60853   -268.94814    800.60373    531.65558    1234.9551   -268.94814            0   -6.5512461            0            0            0            0            0            0 
14946000    460.58472    85434.408    504.93759   -273.05408    769.11788     496.0638      1069.94   -273.05408            0   -6.1297264            0            0            0            0            0            0 
14947000    470.07816    85323.979    491.98879   -267.60411    749.39435    481.79023     1066.738   -267.60411            0   -6.1376597            0            0            0            0            0            0 
14948000    461.59045     84176.22     464.2622   -272.02819    707.16137    435.13318    1001.7926   -272.02819            0   -6.2213479            0            0            0            0            0            0 
14949000     453.7107    90314.834    501.42111   -248.14698    763.76159    515.61461    1113.2193   -248.14698            0   -5.7984887            0            0            0            0            0            0 
14950000    542.95025    86670.299    541.99674   -246.13603    825.56615    579.43012    1265.7178   -246.13603            0   -6.0423185            0            0            0            0            0            0 
14951000    482.65213    81726.415    504.45847   -289.11555    768.38809    479.27254    1054.5436   -289.11555            0    -6.407837            0            0            0            0            0            0 
14952000    558.20517    82010.841    487.19343   -266.20286    742.09007    475.88721    1143.5252   -266.20286            0   -6.3856136            0            0            0            0            0            0 
14953000    396.70997    91857.335    510.68808   -260.52933    777.87699    517.34766    1048.7982   -260.52933            0   -5.7011184            0            0            0            0            0            0 
14954000    517.04428    83563.778    531.70795    -273.7724    809.89433    536.12192    1166.2396    -273.7724            0   -6.2669443            0            0            0            0            0            0 
14955000    551.40172    82998.617    478.71557   -257.57409    729.17665    471.60256    1139.0466   -257.57409            0   -6.3096178            0            0            0            0            0            0 
14956000    421.56196    82476.913    452.58993   -284.45331    689.38224    404.92893    912.00101   -284.45331            0   -6.3495289            0            0            0            0            0            0 
14957000    452.39229    87748.456    511.58379   -261.13603    779.24133     518.1053    1097.0413   -261.13603            0    -5.968077            0            0            0            0            0            0 
14958000    559.90125    84264.914    486.05991   -251.89278    740.36351    488.47073    1176.5431   -251.89278            0   -6.2147995            0            0            0            0            0            0 
14959000    485.87517     83902.31    481.30701   -265.88663    733.12392    467.23729    1061.7683   -265.88663            0   -6.2416582            0            0            0            0            0            0 
14960000    491.91617    84981.208    480.44386     -255.689    731.80918    476.12018    1085.7832     -255.689            0   -6.1624159            0            0            0            0            0            0 
14961000    475.28539    84138.876    493.73737   -268.23109    752.05777    483.82669    1067.0395   -268.23109            0   -6.2241091            0            0            0            0            0            0 
14962000    513.32481    89703.558    562.77367   -256.63417    857.21344    600.57927    1272.1284   -256.63417            0   -5.8380019            0            0            0            0            0            0 
14963000    561.48365    81644.286    499.03897   -279.41331    760.13313    480.71982    1149.2774   -279.41331            0   -6.4142829            0            0            0            0            0            0 
14964000    464.66143    86138.077    471.83489   -271.82016    718.69604    446.87588    1030.6001   -271.82016            0   -6.0796521            0            0            0            0            0            0 
14965000    505.72144    80389.519    480.93282   -285.01146    732.55396     447.5425    1040.4497   -285.01146            0   -6.5144007            0            0            0            0            0            0 
14966000    544.83984    81027.718    508.78446   -278.57958     774.9774    496.39782    1140.2384   -278.57958            0   -6.4630914            0            0            0            0            0            0 
14967000    490.76234    87315.649    509.49934   -257.85513     776.0663    518.21117    1143.1524   -257.85513            0   -5.9976596            0            0            0            0            0            0 
14968000    518.84571     86557.34     479.2805   -255.30299    730.03716    474.73417    1129.6991   -255.30299            0   -6.0502038            0            0            0            0            0            0 
14969000    493.76289    84457.497    485.55741   -271.32686     739.5981    468.27124    1076.4518   -271.32686            0   -6.2006283            0            0            0            0            0            0 
14970000    527.94952     84764.77    483.27397   -259.27012    736.11998    476.84985    1129.5049   -259.27012            0    -6.178151            0            0            0            0            0            0 
14971000    575.05598    78299.342    508.83556   -276.40454    775.05524    498.65071    1155.3161   -276.40454            0   -6.6883007            0            0            0            0            0            0 
14972000    546.70505    86785.238    518.31975   -246.33759     789.5015    543.16392    1235.1141   -246.33759            0   -6.0343159            0            0            0            0            0            0 
14973000    468.74573    86778.808    495.20556   -257.99392    754.29411    496.30019    1089.5354   -257.99392            0   -6.0347631            0            0            0            0            0            0 
14974000     464.0455    84294.682    462.41353   -268.31211    704.34549    436.03338    1006.5084   -268.31211            0   -6.2126048            0            0            0            0            0            0 
14975000     547.6003     86929.18    507.42576   -244.75424    772.90784    528.15361    1222.3864   -244.75424            0    -6.024324            0            0            0            0            0            0 
14976000     519.7188    84270.962    517.92012   -265.44505    788.89278    523.44773     1162.185   -265.44505            0   -6.2143535            0            0            0            0            0            0 
14977000    495.40732    77284.651     496.3511   -297.62613    756.03898    458.41284     1016.795   -297.62613            0   -6.7761132            0            0            0            0            0            0 
14978000    569.47089    80694.303    515.34686    -274.6411    784.97322    510.33212    1180.5103    -274.6411            0   -6.4897957            0            0            0            0            0            0 
14979000    429.32402    87795.399     483.0749     -261.185    735.81675    474.63175    1024.3407     -261.185            0    -5.964886            0            0            0            0            0            0 
14980000    464.17544    83192.146    511.94172   -279.57811    779.78652    500.20841    1063.3795   -279.57811            0   -6.2949397            0            0            0            0            0            0 
14981000    623.54402    80075.853     513.7604   -269.51286    782.55673    513.04387    1241.2337   -269.51286            0   -6.5399184            0            0            0            0            0            0 
14982000     480.4744    86722.501    486.04517   -263.33123    740.34105    477.00982     1084.694   -263.33123            0   -6.0386813            0            0            0            0            0            0 
14983000    551.82697    83243.668    495.72806   -266.72749    755.08998    488.36248    1158.2934   -266.72749            0   -6.2910436            0            0            0            0            0            0 
14984000    526.72025    79807.565    500.71527   -278.94847    762.68646    483.73799    1096.7937   -278.94847            0   -6.5619035            0            0            0            0            0            0 
14985000    514.82366    83415.505    497.45012   -265.83203    757.71301    491.88098    1118.1792   -265.83203            0    -6.278084            0            0            0            0            0            0 
14986000    455.80455    87832.127    487.76498   -246.94463    742.96066    496.01602     1079.875   -246.94463            0   -5.9623917            0            0            0            0            0            0 
14987000    587.01497    84478.408    505.45288   -248.98343    769.90275    520.91932    1244.1399   -248.98343            0   -6.1990935            0            0            0            0            0            0 
14988000    429.97909    86647.152    500.65893   -276.16547    762.60065    486.43518    1029.7825   -276.16547            0   -6.0439326            0            0            0            0            0            0 
14989000    429.77495    84322.125    489.64555   -276.47113    745.82514      469.354    997.87048   -276.47113            0   -6.2105829            0            0            0            0            0            0 
14990000    505.47666    82014.757    493.15196   -274.80409    751.16607    476.36198    1080.9632   -274.80409            0   -6.3853088            0            0            0            0            0            0 
14991000    474.34797    83903.744    517.76823   -273.45525    788.66143    515.20618    1095.6421   -273.45525            0   -6.2415516            0            0            0            0            0            0 
14992000     481.0547    88846.916    491.48597   -262.66234    748.62845     485.9661    1109.2885   -262.66234            0   -5.8942907            0            0            0            0            0            0 
14993000    519.57624    87943.929       478.92   -242.77895    729.48804    486.70909     1153.103   -242.77895            0   -5.9548118            0            0            0            0            0            0 
14994000     585.9029    80441.472    539.05262   -287.04546    821.08167    534.03621    1221.3919   -287.04546            0   -6.5101934            0            0            0            0            0            0 
14995000    507.96795    84745.502    499.60878   -260.87875    761.00106    500.12232    1127.9332   -260.87875            0   -6.1795557            0            0            0            0            0            0 
14996000    448.32657    88644.547    503.99127   -267.63375    767.67645     500.0427    1079.6347   -267.63375            0   -5.9077469            0            0            0            0            0            0 
14997000    495.59555    81612.542    509.17368   -284.98595    775.57026    490.58431    1080.4596   -284.98595            0   -6.4167778            0            0            0            0            0            0 
14998000    526.78582    83329.368    465.44158    -265.4668     708.9578      443.491    1083.6798    -265.4668            0   -6.2845736            0            0            0            0            0            0 
14999000    467.19689    84959.247    499.50678    -267.4428     760.8457    493.40291    1072.2802    -267.4428            0   -6.1640088            0            0            0            0            0            0 
15000000    618.35506    79919.677    501.73996   -268.41005    764.24726    495.83721    1216.5588   -268.41005            0   -6.5526984            0            0            0            0            0            0 
Loop time of 1137.24 on 8 procs for 5000000 steps with 512 atoms

Pair  time (%) = 564.625 (49.6485)
Bond  time (%) = 0.461039 (0.04054)
Neigh time (%) = 26.0252 (2.28845)
Comm  time (%) = 390.463 (34.3341)
Outpt time (%) = 0.27205 (0.0239218)
Other time (%) = 155.398 (13.6644)

Nlocal:    64 ave 70 max 59 min
Histogram: 1 0 1 2 2 0 0 1 0 1
Nghost:    1034.88 ave 1045 max 1021 min
Histogram: 2 0 0 0 0 2 0 2 1 1
Neighs:    4127.75 ave 4732 max 3640 min
Histogram: 1 0 1 0 4 1 0 0 0 1

Total # of neighbors = 33022
Ave neighs/atom = 64.4961
Ave special neighs/atom = 0
Neighbor list builds = 103873
Dangerous builds = 0

Averages
Group Pressure(MPa) Volume(m3) Temperature(K) PE(J) KE(J) ET(J) ET^2(J) H(J) H^2(J^2) V^2(m6) V*H(m3*J) Hconf(J) Uext*Hconf(J^2) V*Hconf(m3*J) Uext(J)
Block1 50.007531089733539886 8.4476285777142812044e-26 500.1196215950012629 -1.8617292615837882346e-18 5.2926092452910068858e-18 3.4308799837072201919e-18 1.1814046256653738191e-35 7.6489951839758962497e-18 5.8764488719455504069e-35 7.1441921210204159773e-51 6.4620193738039768146e-43 2.3563859386848955269e-18 -4.3654098529413928384e-36 1.9909439803776181367e-43 -1.8617292615837882346e-18
Block2 49.866011384004501394 8.4544982883037150227e-26 499.60822813880002968 -1.8583173894528717868e-18 5.287197328586683206e-18 3.4288799391338114192e-18 1.1801927488714103753e-35 7.6376094205725838078e-18 5.8588191211133702227e-35 7.1562316385863002767e-51 6.4573579134775460047e-43 2.3504120919859021425e-18 -4.3477595703800204503e-36 1.9869921610007382417e-43 -1.8583173894528717868e-18
Block3 49.788275139705923777 8.4474068441502012646e-26 500.24186286331365636 -1.8632549900514693862e-18 5.2939028863298583137e-18 3.430647896278385846e-18 1.181153477772904007e-35 7.6296432119716310747e-18 5.8467405369959640742e-35 7.144481184420955992e-51 6.4453318271451480889e-43 2.3357403256417754574e-18 -4.3323858924378746039e-36 1.9735019823557312069e-43 -1.8632549900514693862e-18
Block4 49.938756169640797111 8.4472916538886523879e-26 499.99624083121824469 -1.8611348902650330014e-18 5.2913035453286512905e-18 3.4301686550636256077e-18 1.1809550013403197045e-35 7.64139565991810449e-18 5.8641491476799520576e-35 7.1438749811728306762e-51 6.454266796496384041e-43 2.3500921145894574365e-18 -4.3538821760903879206e-36 1.9848808097453776209e-43 -1.8611348902650330014e-18
Block5 50.176170779994876625 8.447241199158564797e-26 498.81246868822535134 -1.8576546628212848923e-18 5.2787760556686115269e-18 3.4211213928473173901e-18 1.1748599943550899062e-35 7.6517963216448838718e-18 5.8806274648256445716e-35 7.1444203655464374507e-51 6.4631317893758378385e-43 2.3730202659762769671e-18 -4.3892746197863050032e-36 2.0042150531277017119e-43 -1.8576546628212848923e-18
Ave_blocks 49.955348912615932022 8.4488133126430827057e-26 499.75568442331166352 -1.8604182388348892291e-18 5.2887578122409614742e-18 3.4283395734060722451e-18 1.1797131696010196159e-35 7.6418879596166192825e-18 5.8653570285120954113e-35 7.146640058149387125e-51 6.4564215400597790355e-43 2.3531301473756616601e-18 -4.3577424223271961633e-36 1.988106797321433304e-43 -1.8604182388348892291e-18
Stdev_blocks 0.1324050115771149283 2.8456171530305973359e-29 0.51731738895991152827 2.1133124659699106029e-21 5.4746078284731863607e-21 3.6748252853577819081e-21 2.4601204669960403914e-38 7.9645511663896481273e-21 1.2222865307182227175e-37 4.8005048313349872738e-54 6.401009858479709186e-46 1.2043590521468415682e-20 1.9029353172716250193e-38 9.9244701920571703948e-46 2.1133124659699106029e-21






Properties
Group rho(kg/m3) Cp(J/K) Cp_conf(J/K) Cp_id(J/K) Cp2(J/K) kT(1/Pa) aP(1/K) aP2(1/K) Cv(J/K) uJT(K/Pa) sos(m/s) Cv2(J/K) uJT2(K/Pa) sos2(m/s) CvNVT(J/K)
Block1 161.45636653772834279 7.4526786312273591911e-20 -3.1406400704979297081e-22 3.9545839461585124755e-20 3.9231775454535331784e-20 1.3628087213516031295e-08 0.00014820495457159988512 0.00012226145593482898137 7.4458693817588430604e-20 -1.0494869020984110353e-06 674.45573358769934202 3.9185435785585278367e-20 -2.0215999030814011525e-06 674.5460468063386088 1.2483456902292414123e-20
Block2 161.32517501422063333 7.4027169116688683595e-20 -1.4866870979385358934e-21 3.9519586401503673824e-20 3.8032899303565135674e-20 1.4365283562901607298e-08 4.8852307832911687246e-05 -5.6061140213546940413e-05 7.4020151762622742509e-20 -1.1142056788807562022e-06 656.91988965274822476 3.8023658131158493383e-20 -2.2852049585482168102e-06 656.96857221241748448 1.2973610204367579109e-20
Block3 161.46060455967474923 7.4081805161617854155e-20 -7.8207696640794296183e-22 3.9552114993429434305e-20 3.8770038027021492095e-20 1.4762673959015518295e-08 8.970162845113344597e-05 0.00013948757801242369215 7.4058772768178044374e-20 -1.0891136468448476358e-06 647.81607635576756365 3.8714343889500468256e-20 -2.0268145440200438117e-06 648.18109550839449184 1.2211361068367771526e-20
Block4 161.46280629367791448 7.2594163866700331196e-20 -1.7364351741276841446e-21 3.9539505475052663592e-20 3.780307030092497719e-20 1.406429720389918202e-08 -0.00022052835291073324313 -0.00010650855155207943049 7.2448116052841035558e-20 -1.2919383334687642339e-06 664.26602396938051243 3.7769003202117877365e-20 -2.3535502804941614151e-06 663.89669945657738026 1.2600935218239593226e-20
Block5 161.46377069875629218 7.4605344926705736862e-20 -2.0300762558944953033e-21 3.9478736690243699637e-20 3.7448660434349205838e-20 1.5181775202543197596e-08 -0.00018096280408638903167 -0.00011454910084936580886 7.4514456565292478873e-20 -1.2344617040038736849e-06 639.09567508712143535 3.7412242692879709376e-20 -2.3845723595811503688e-06 639.01705398250715007 1.296220448584869592e-20
Ave_blocks 161.43374462081158072 7.3967053876797246766e-20 -1.2698679002836902548e-21 3.9527156604362919223e-20 3.825728870407922972e-20 1.4400423428375106639e-08 -2.2946453228295449938e-05 -3.073951733547903957e-06 7.3900038193304551198e-20 -1.1558412530593306855e-06 656.51067973054341564 3.8220936740248360535e-20 -2.2143484091449949658e-06 656.52189359324700035 1.2646313575823211383e-20
Stdev_blocks 0.054344665060273966706 7.2419949502559825804e-22 6.3152409406559309974e-22 2.6556584873569914968e-23 6.5162580280800534462e-22 5.3897215506066039619e-10 0.00014909408506610496363 0.00011132458994484400018 7.5330045521598987662e-22 9.1870488231322988759e-08 12.338689472829713623 6.4356163001378152317e-22 1.5855279375714728715e-07 12.291832286926492657 2.9143621095722354206e-22






