LAMMPS (28 Oct 2012)
Scanning data file ...
Reading data file ...
  orthogonal box = (0 0 0) to (100 100 100)
  2 by 2 by 2 MPI processor grid
  512 atoms
Finding 1-2 1-3 1-4 neighbors ...
  0 = max # of 1-2 neighbors
  0 = max # of 1-3 neighbors
  0 = max # of 1-4 neighbors
  1 = max # of special neighbors
WARNING: Resetting reneighboring criteria during minimization (min.cpp:173)
Setting up minimization ...
Memory usage per processor = 4.05499 Mbytes
Step Temp E_pair E_mol TotEng Press 
       0       560.15    1409.7233            0    2262.9404    451.51896 
     701       560.15   -217.27527            0    635.94182    38.774061 
Loop time of 0.0537117 on 8 procs for 701 steps with 512 atoms

Minimization stats:
  Stopping criterion = energy tolerance
  Energy initial, next-to-last, final = 
         1409.72334813     -217.256630745     -217.275265106
  Force two-norm initial, final = 5034.49 0.337455
  Force max component initial, final = 2457.89 0.147661
  Final line search alpha, max atom move = 0.254892 0.0376377
  Iterations, force evaluations = 701 710

Pair  time (%) = 0.00896114 (16.6838)
Bond  time (%) = 5.67734e-05 (0.1057)
Neigh time (%) = 0.00315702 (5.87771)
Comm  time (%) = 0.0218463 (40.6732)
Outpt time (%) = 0 (0)
Other time (%) = 0.0196905 (36.6596)

Nlocal:    64 ave 74 max 52 min
Histogram: 1 0 0 1 1 2 0 2 0 1
Nghost:    235.125 ave 266 max 224 min
Histogram: 4 0 2 0 0 1 0 0 0 1
Neighs:    316.25 ave 371 max 226 min
Histogram: 1 0 0 1 1 1 0 1 0 3

Total # of neighbors = 2530
Ave neighs/atom = 4.94141
Ave special neighs/atom = 0
Neighbor list builds = 60
Dangerous builds = 0
Setting up run ...
Memory usage per processor = 3.36354 Mbytes
Step Temp E_pair E_mol TotEng Press Volume 
     701       560.15   -217.27527            0    635.94182    38.774061      1000000 
 5000701    555.89033   -203.57923            0    643.14955    524.19957    98935.067 
Loop time of 1047.09 on 8 procs for 5000000 steps with 512 atoms

Pair  time (%) = 505.27 (48.2547)
Bond  time (%) = 0.444158 (0.0424183)
Neigh time (%) = 26.3341 (2.51498)
Comm  time (%) = 362.343 (34.6047)
Outpt time (%) = 4.1157e-05 (3.93061e-06)
Other time (%) = 152.699 (14.5832)

Nlocal:    64 ave 72 max 60 min
Histogram: 3 1 2 0 0 0 0 0 1 1
Nghost:    894.25 ave 916 max 863 min
Histogram: 1 0 1 0 0 1 2 0 2 1
Neighs:    3355.38 ave 3915 max 2995 min
Histogram: 3 0 1 1 1 0 0 0 0 2

Total # of neighbors = 26843
Ave neighs/atom = 52.4277
Ave special neighs/atom = 0
Neighbor list builds = 109864
Dangerous builds = 2
Setting up run ...
Memory usage per processor = 3.9389 Mbytes
Step Press Volume Temp PotEng KinEng TotEng Enthalpy E_vdwl E_coul E_tail E_long E_bond E_angle E_dihed E_impro E_mol 
10000000    524.19957    98935.067    555.89033   -203.57923    846.72878    643.14955    1399.4995   -203.57923            0   -5.2932652            0            0            0            0            0            0 
10001000    476.79739     92295.06    546.61901   -250.25414    832.60676    582.35262    1224.1356   -250.25414            0   -5.6740799            0            0            0            0            0            0 
10002000    385.29834     93589.63    535.34481   -260.73548    815.43396    554.69849    1080.5956   -260.73548            0   -5.5955937            0            0            0            0            0            0 
10003000       452.85    97246.166    559.32658   -228.48572    851.96286    623.47714    1265.7251   -228.48572            0   -5.3851948            0            0            0            0            0            0 
10004000    395.01912    95770.551     542.9846   -249.26251    827.07085    577.80834    1129.5376   -249.26251            0   -5.4681689            0            0            0            0            0            0 
10005000    506.57421     89422.92    586.14587   -256.76042    892.81383    636.05341    1296.6979   -256.76042            0   -5.8563235            0            0            0            0            0            0 
10006000    441.19683    96518.459    563.91397   -234.13046    858.95034    624.81988    1245.8586   -234.13046            0   -5.4257968            0            0            0            0            0            0 
10007000    446.42733    92596.248    540.56248   -242.19481    823.38149    581.18668    1184.0517   -242.19481            0   -5.6556238            0            0            0            0            0            0 
10008000    497.36099    94539.923    527.12275     -228.043    802.91018    574.86719    1260.6125     -228.043            0   -5.5393481            0            0            0            0            0            0 
10009000     560.8074    96139.204     592.3076    -216.2829    902.19935    685.91645    1472.2198    -216.2829            0   -5.4472007            0            0            0            0            0            0 
10010000    520.57617    93998.912    606.82464   -236.96672    924.31161    687.34489    1400.9911   -236.96672            0   -5.5712299            0            0            0            0            0            0 
10011000    465.29761      95659.1    542.62796   -228.86791    826.52762    597.65971    1246.7917   -228.86791            0   -5.4745397            0            0            0            0            0            0 
10012000    467.09736    90154.118    565.71609   -260.30064    861.69532    601.39468    1215.5368   -260.30064            0   -5.8088256            0            0            0            0            0            0 
10013000    544.52598    94685.031     548.8808   -219.20659     836.0519    616.84531    1368.7726   -219.20659            0   -5.5308589            0            0            0            0            0            0 
10014000    445.42354     98912.25    549.14707   -222.58355    836.45748    613.87393    1256.4124   -222.58355            0   -5.2944862            0            0            0            0            0            0 
10015000    536.35535    90786.525    563.25124   -231.82033    857.94088    626.12054    1336.2702   -231.82033            0   -5.7683621            0            0            0            0            0            0 
10016000    540.87345    95765.371    541.11087   -214.48304     824.2168    609.73376    1365.1391   -214.48304            0   -5.4684646            0            0            0            0            0            0 
10017000    470.20594    96074.803    557.93629   -228.83122    849.84518    621.01396    1279.8442   -228.83122            0   -5.4508521            0            0            0            0            0            0 
10018000    578.24323    90195.372    599.21281   -243.41225    912.71732    669.30508    1429.9303   -243.41225            0   -5.8061687            0            0            0            0            0            0 
10019000    522.83555     95170.35    568.65169   -222.67738    866.16681    643.48943    1369.1653   -222.67738            0   -5.5026544            0            0            0            0            0            0 
10020000     480.9482    95831.941    543.92706   -233.57224    828.50641    594.93417    1267.1125   -233.57224            0   -5.4646659            0            0            0            0            0            0 
10021000     469.1526     94551.74    524.06676   -236.30197    798.25531    561.95334    1208.8867   -236.30197            0   -5.5386558            0            0            0            0            0            0 
10022000    529.75396    94877.428     551.1471   -215.48063    839.50392    624.02329    1357.0385   -215.48063            0   -5.5196432            0            0            0            0            0            0 
10023000     407.9057    101580.59    551.79002   -233.18709    840.48321    607.29611    1211.5875   -233.18709            0   -5.1554097            0            0            0            0            0            0 
10024000    559.08126    89346.256    579.67105    -247.7066    882.95142    635.24482    1363.7408    -247.7066            0   -5.8613485            0            0            0            0            0            0 
10025000    494.00366     90917.63    579.60909   -252.86667    882.85704    629.99037    1285.0098   -252.86667            0    -5.760044            0            0            0            0            0            0 
10026000    482.32474    98455.136    553.28318   -216.97844    842.75758    625.77914    1318.3334   -216.97844            0   -5.3190678            0            0            0            0            0            0 
10027000    534.41892    94792.786    589.13573   -228.24066    897.36797    669.12731    1407.9377   -228.24066            0   -5.5245717            0            0            0            0            0            0 
10028000     525.8428    92268.414    531.75389    -229.0702    809.96431    580.89411    1288.4893    -229.0702            0   -5.6757185            0            0            0            0            0            0 
10029000     524.8129    96418.437    560.84972   -212.33669     854.2829     641.9462    1379.9192   -212.33669            0   -5.4314254            0            0            0            0            0            0 
10030000    454.25847    95534.784    544.73568   -234.55757    829.73808    595.18051    1228.0883   -234.55757            0   -5.4816636            0            0            0            0            0            0 
10031000    489.75197    92301.646    544.68242   -244.68443    829.65696    584.97253    1244.2398   -244.68443            0    -5.673675            0            0            0            0            0            0 
10032000    476.46911    99542.446    581.02866   -220.23746    885.01933    664.78187    1356.4837   -220.23746            0   -5.2609672            0            0            0            0            0            0 
10033000    625.75663    93397.526    577.69162   -223.24331    879.93638    656.69307    1509.0406   -223.24331            0    -5.607103            0            0            0            0            0            0 
10034000    538.49897    88250.014    550.50842   -252.95014    838.53109    585.58095    1278.6485   -252.95014            0   -5.9341582            0            0            0            0            0            0 
10035000    460.09483    98563.167    569.77702   -221.64462     867.8809    646.23627    1307.5962   -221.64462            0   -5.3132378            0            0            0            0            0            0 
10036000    535.07849    97055.382    587.44285   -221.46886    894.78938    673.32053    1430.6991   -221.46886            0   -5.3957806            0            0            0            0            0            0 
10037000    450.75256    94409.133    575.38865   -237.50584     876.4285    638.92266     1259.546   -237.50584            0   -5.5470221            0            0            0            0            0            0 
10038000    555.79652    93175.806    559.55428   -219.18416    852.30969    633.12553    1388.3827   -219.18416            0   -5.6204456            0            0            0            0            0            0 
10039000    443.73372     98853.18    561.48606   -218.51311    855.25216    636.73905    1276.4576   -218.51311            0     -5.29765            0            0            0            0            0            0 
10040000    508.38844    95211.005    537.52249   -223.14478    818.75099    595.60621    1301.5314   -223.14478            0   -5.5003048            0            0            0            0            0            0 
10041000    502.69748    94614.954    565.06455    -229.8084     860.7029     630.8945    1324.5477    -229.8084            0   -5.5349553            0            0            0            0            0            0 
10042000    484.89022    98426.101    570.41874   -215.80923    868.85836    653.04914    1349.0818   -215.80923            0   -5.3206369            0            0            0            0            0            0 
10043000    549.41408    91299.353    523.93743   -222.62397    798.05831    575.43434    1306.9833   -222.62397            0   -5.7359612            0            0            0            0            0            0 
10044000    473.99887    91106.595    533.39128   -245.13762    812.45837    567.32075    1197.1213   -245.13762            0    -5.748097            0            0            0            0            0            0 
10045000    526.38521    99634.727    587.84877    -206.5582    895.40768    688.84947    1453.7242    -206.5582            0   -5.2560946            0            0            0            0            0            0 
10046000    539.22469    93990.102    573.14799   -230.67931    873.01554    642.33623    1381.4781   -230.67931            0   -5.5717521            0            0            0            0            0            0 
10047000    497.92508    92369.268    533.05793   -235.83035    811.95061    576.12026    1246.8806   -235.83035            0   -5.6695214            0            0            0            0            0            0 
10048000    508.61908    98972.187    547.55431   -209.06003    834.03141    624.97138    1359.1161   -209.06003            0   -5.2912799            0            0            0            0            0            0 
10049000    520.33965    88954.286    549.16108   -240.40814    836.47882    596.07068     1271.111   -240.40814            0   -5.8871761            0            0            0            0            0            0 
10050000    546.51737    90937.676    559.08556   -239.58676    851.59574    612.00898    1336.8182   -239.58676            0   -5.7587742            0            0            0            0            0            0 
10051000    508.41433    98217.918    557.67103   -216.18895    849.44114    633.25219    1361.5087   -216.18895            0   -5.3319145            0            0            0            0            0            0 
10052000    573.87177    93628.026    577.52869   -223.78985     879.6882    655.89835    1439.5023   -223.78985            0    -5.593299            0            0            0            0            0            0 
10053000    448.84068    99426.451    534.91716   -213.45947    814.78258    601.32311    1252.1568   -213.45947            0   -5.2671049            0            0            0            0            0            0 
10054000    516.68974    92246.621    549.88919   -233.85948    837.58788     603.7284    1298.8427   -233.85948            0   -5.6770594            0            0            0            0            0            0 
10055000    512.54324    91658.608    579.03277   -246.65846     881.9792    635.32074    1320.4613   -246.65846            0   -5.7134792            0            0            0            0            0            0 
10056000    497.97883    99868.426     573.9229   -212.98854    874.19588    661.20734    1386.5028   -212.98854            0   -5.2437949            0            0            0            0            0            0 
10057000    589.91464    91593.204    559.39763   -223.51718    852.07107    628.55389    1416.5577   -223.51718            0   -5.7175589            0            0            0            0            0            0 
10058000    493.94111    94053.418     548.7465   -238.40751    835.84735    597.43984    1274.9653   -238.40751            0   -5.5680012            0            0            0            0            0            0 
10059000     482.9525    98232.986    507.84026   -209.08428    773.53921    564.45492    1256.3459   -209.08428            0   -5.3310967            0            0            0            0            0            0 
10060000    550.09232    89487.443    546.50749   -246.22594     832.4369    586.21095    1304.1268   -246.22594            0   -5.8521009            0            0            0            0            0            0 
10061000    471.56526    94723.818    567.43782   -242.22569    864.31784    622.09215    1273.5359   -242.22569            0   -5.5285941            0            0            0            0            0            0 
10062000    531.75226    94462.114    563.94769   -223.43411     859.0017    635.56759    1368.1271   -223.43411            0   -5.5439109            0            0            0            0            0            0 
10063000    492.14477    98444.659    582.39857   -222.49621    887.10597    664.60976    1371.1891   -222.49621            0   -5.3196339            0            0            0            0            0            0 
10064000    487.35996    95895.521     530.4273   -223.33478    807.94365    584.60887    1266.2002   -223.33478            0   -5.4610428            0            0            0            0            0            0 
10065000    593.51264    87504.667    560.45942   -240.13826    853.68838    613.55012    1370.9707   -240.13826            0   -5.9847042            0            0            0            0            0            0 
10066000    476.53133    96305.351    556.84314   -230.59898    848.18009    617.58111    1286.8764   -230.59898            0   -5.4378032            0            0            0            0            0            0 
10067000    497.37774    97991.165    558.38885   -221.17211    850.53452     629.3624    1340.1652   -221.17211            0   -5.3442527            0            0            0            0            0            0 
10068000    546.57107    96456.539    573.47137    -214.3887    873.50812    659.11942    1427.9917    -214.3887            0   -5.4292799            0            0            0            0            0            0 
10069000    554.11739    95287.681    550.99336   -206.40338    839.26974    632.86636    1402.9084   -206.40338            0   -5.4958788            0            0            0            0            0            0 
10070000    421.39747    96974.551    567.03539   -238.91499    863.70487    624.78988    1220.7615   -238.91499            0   -5.4002781            0            0            0            0            0            0 
10071000     491.0323    91465.527    558.56315   -245.56454        850.8    605.23547    1260.2386   -245.56454            0   -5.7255402            0            0            0            0            0            0 
10072000    499.21648    91601.738    574.15583   -248.59158    874.55067    625.95909    1292.8711   -248.59158            0   -5.7170263            0            0            0            0            0            0 
10073000    508.68603    97737.867    576.88883    -212.1288    878.71357    666.58477    1391.6692    -212.1288            0   -5.3581028            0            0            0            0            0            0 
10074000    514.72565    93880.792    568.26347   -242.23759    865.57547    623.33788    1328.0771   -242.23759            0   -5.5782395            0            0            0            0            0            0 
10075000    485.03113    95445.795    537.92251   -227.79118    819.36031    591.56913    1266.7223   -227.79118            0   -5.4867744            0            0            0            0            0            0 
10076000    428.11235    92240.655    570.62115   -257.66883    869.16667    611.49784    1187.4097   -257.66883            0   -5.6774266            0            0            0            0            0            0 
10077000    496.07168     92693.25    531.30515   -236.62726    809.28079    572.65352    1243.2611   -236.62726            0   -5.6497053            0            0            0            0            0            0 
10078000    443.33364    102564.51    570.81202   -214.45873     869.4574    654.99867    1318.1363   -214.45873            0   -5.1059527            0            0            0            0            0            0 
10079000    554.29587    95078.825    573.05505   -217.04237    872.87397     655.8316    1424.4333   -217.04237            0   -5.5079514            0            0            0            0            0            0 
10080000    519.28985    96247.166    559.88574   -220.94778    852.81456    631.86678    1360.7764   -220.94778            0   -5.4410906            0            0            0            0            0            0 
10081000    478.02198    95598.226    552.17064   -225.69029    841.06297    615.37269    1281.8319   -225.69029            0   -5.4780258            0            0            0            0            0            0 
10082000    436.35617    94746.018     522.0771    -238.1539    795.22468    557.07078    1160.0162    -238.1539            0   -5.5272987            0            0            0            0            0            0 
10083000    495.05161    92992.533    546.65704    -234.8269     832.6647    597.83779    1269.2271    -234.8269            0   -5.6315225            0            0            0            0            0            0 
10084000    480.98901    91578.654    588.50476   -256.71876    896.40688    639.68812    1282.0878   -256.71876            0   -5.7184674            0            0            0            0            0            0 
10085000    456.05676    97056.389    552.37689   -236.83314    841.37713      604.544    1250.0777   -236.83314            0   -5.3957246            0            0            0            0            0            0 
10086000    477.10495    94041.235    562.35821   -245.30326    856.58062    611.27735    1265.6244   -245.30326            0   -5.5687225            0            0            0            0            0            0 
10087000    565.93032    94706.582    605.59122   -225.54089    922.43287    696.89198     1478.554   -225.54089            0   -5.5296003            0            0            0            0            0            0 
10088000    474.93546    100520.29    576.09421   -218.47712     877.5032    659.02608    1355.2745   -218.47712            0   -5.2097895            0            0            0            0            0            0 
10089000    594.45087     88190.59    561.88161   -246.40205    855.85466    609.45261    1374.0171   -246.40205            0   -5.9381568            0            0            0            0            0            0 
10090000    457.10609    97492.527    539.32917   -228.00846    821.50292    593.49447    1243.4209   -228.00846            0   -5.3715865            0            0            0            0            0            0 
10091000    526.80371    92870.495    560.56289   -243.80218      853.846    610.04382    1323.5578   -243.80218            0   -5.6389227            0            0            0            0            0            0 
10092000    497.84786    96445.482    581.13025    -228.2047    885.17408    656.96937    1357.2215    -228.2047            0   -5.4299023            0            0            0            0            0            0 
10093000    513.47222    94576.251     549.0415    -227.9771    836.29668    608.31958    1316.5506    -227.9771            0   -5.5372204            0            0            0            0            0            0 
10094000    481.69699    92268.004    562.50522   -245.02885    856.80454    611.77569    1259.9636   -245.02885            0   -5.6757437            0            0            0            0            0            0 
10095000    482.43953     97226.37    582.93118   -229.46513    887.91723     658.4521    1342.5257   -229.46513            0   -5.3862912            0            0            0            0            0            0 
10096000    534.67882    92713.322    551.50028   -230.34243    840.04188    609.69945     1332.654   -230.34243            0   -5.6484821            0            0            0            0            0            0 
10097000    554.74638    90757.795    556.67238   -242.67216    847.91999    605.24784    1339.5153   -242.67216            0   -5.7701881            0            0            0            0            0            0 
10098000    415.32097    100017.22     572.7431   -229.66945    872.39881    642.72936    1248.5367   -229.66945            0    -5.235994            0            0            0            0            0            0 
10099000    467.38354    88604.511    579.77209   -266.74337    883.10533    616.36196    1220.3177   -266.74337            0   -5.9104163            0            0            0            0            0            0 
10100000    533.13689    94508.736    566.73261   -230.14569    863.24367    633.09798    1367.9275   -230.14569            0    -5.541176            0            0            0            0            0            0 
10101000    557.21779    94753.758    547.42514   -214.25855    833.83465     619.5761    1389.5878   -214.25855            0   -5.5268473            0            0            0            0            0            0 
10102000    421.80738    95420.672    524.77506   -243.05384    799.33418    556.28034    1143.2728   -243.05384            0    -5.488219            0            0            0            0            0            0 
10103000    541.35981    94519.325    576.65383   -225.38636    878.35561    652.96925    1399.2161   -225.38636            0   -5.5405553            0            0            0            0            0            0 
10104000    534.48653    91218.818    556.66071   -247.78813    847.90222    600.11409    1311.1591   -247.78813            0   -5.7410253            0            0            0            0            0            0 
10105000    471.00846    91649.881    553.68373   -250.73628     843.3677    592.63142    1222.1905   -250.73628            0   -5.7140232            0            0            0            0            0            0 
10106000    421.89573    100640.13    557.71873    -230.6149    849.51379    618.89889    1238.1292    -230.6149            0   -5.2035859            0            0            0            0            0            0 
10107000    489.98286    96665.624    566.44755   -228.64311    862.80947    634.16636     1324.929   -228.64311            0   -5.4175365            0            0            0            0            0            0 
10108000    576.62187    91547.313    563.29078   -236.45861    858.00111     621.5425     1391.404   -236.45861            0   -5.7204251            0            0            0            0            0            0 
10109000    497.79515    97081.285    548.50488   -221.70802    835.47931    613.77129    1318.5651   -221.70802            0   -5.3943409            0            0            0            0            0            0 
10110000    513.90469    90857.839     561.3767   -249.15021    855.08559    605.93538    1286.8942   -249.15021            0   -5.7638345            0            0            0            0            0            0 
10111000    494.76412    97577.978    543.71388     -223.208    828.18169    604.97369      1309.06     -223.208            0   -5.3668825            0            0            0            0            0            0 
10112000    520.36803     94332.07    579.43466   -235.66459    882.59136    646.92677    1362.8161   -235.66459            0   -5.5515536            0            0            0            0            0            0 
10113000    528.21229    99869.826    583.62146   -209.29195    888.96868    679.67672    1449.0174   -209.29195            0   -5.2437214            0            0            0            0            0            0 
10114000    476.73041    96856.612    548.90759    -234.2492    836.09271    601.84351    1275.2511    -234.2492            0   -5.4068538            0            0            0            0            0            0 
10115000    479.76418    91943.106    527.27475   -243.33288    803.14171    559.80882    1203.1226   -243.33288            0      -5.6958            0            0            0            0            0            0 
10116000    483.17914    94663.897    543.24571   -228.36523    827.46857    599.10334    1266.1688   -228.36523            0   -5.5320937            0            0            0            0            0            0 
10117000    476.95191    97174.929    573.55922   -221.25321    873.64192    652.38871    1328.3234   -221.25321            0   -5.3891425            0            0            0            0            0            0 
10118000    580.64342    88655.793    537.76746    -240.4152    819.12414    578.70893    1329.4541    -240.4152            0   -5.9069975            0            0            0            0            0            0 
10119000    453.22143    92956.142    538.32293    -244.1452    819.97023    575.82503    1190.2437    -244.1452            0   -5.6337272            0            0            0            0            0            0 
10120000    439.72906    97079.114    538.29687   -237.23654    819.93052    582.69399    1205.2621   -237.23654            0   -5.3944615            0            0            0            0            0            0 
10121000    615.96942    93307.698    573.37077   -210.90812    873.35489    662.44677    1500.6561   -210.90812            0    -5.612501            0            0            0            0            0            0 
10122000    454.50466    90633.603    541.14894   -248.06786    824.27478    576.20693    1176.9703   -248.06786            0   -5.7780948            0            0            0            0            0            0 
10123000    464.51252    96632.186     558.2434     -224.276    850.31297    626.03697    1280.6658     -224.276            0   -5.4194112            0            0            0            0            0            0 
10124000    426.82196       100755    542.60137   -226.63884    826.48711    599.84827     1227.024   -226.63884            0   -5.1976534            0            0            0            0            0            0 
10125000    594.77568    90888.878    589.46805   -233.32918    897.87416    664.54499    1452.9327   -233.32918            0   -5.7618661            0            0            0            0            0            0 
10126000    473.38027    94986.716    577.51844   -236.26868    879.67259    643.40391    1299.1699   -236.26868            0   -5.5132925            0            0            0            0            0            0 
10127000    445.77527    94098.396    530.39195    -246.9691     807.8898    560.92071    1172.6709    -246.9691            0   -5.5653398            0            0            0            0            0            0 
10128000    472.76826    94568.981    530.76286   -232.60912    808.45477    575.84565    1227.8837   -232.60912            0   -5.5376461            0            0            0            0            0            0 
10129000    445.30398    96379.219    548.84993   -235.70031    836.00489    600.30458    1226.2203   -235.70031            0   -5.4336355            0            0            0            0            0            0 
10130000    471.53662    93521.613    543.48559   -241.30743    827.83396    586.52653    1229.6632   -241.30743            0   -5.5996633            0            0            0            0            0            0 
10131000    581.31293    87372.901    578.81508   -250.98531    881.64763    630.66232    1371.3969   -250.98531            0   -5.9937296            0            0            0            0            0            0 
10132000    461.22546    98255.181    546.86025   -220.43088    832.97422    612.54334    1273.4568   -220.43088            0   -5.3298924            0            0            0            0            0            0 
10133000    584.79498    93232.877    572.85401   -214.94372    872.56775    657.62404    1452.7732   -214.94372            0   -5.6170051            0            0            0            0            0            0 
10134000    524.64837    93818.032     581.9282   -238.39277     886.3895    647.99673    1365.8415   -238.39277            0   -5.5819711            0            0            0            0            0            0 
10135000    518.22108    99955.083    571.92331   -207.21676    871.15012    663.93336    1419.3662   -207.21676            0   -5.2392488            0            0            0            0            0            0 
10136000    502.64706    93564.115    551.06692   -240.11748    839.38178    599.26431    1285.1446   -240.11748            0   -5.5971196            0            0            0            0            0            0 
10137000    485.44991    95036.494    531.08302   -238.21757    808.94243    570.72487    1243.5632   -238.21757            0   -5.5104047            0            0            0            0            0            0 
10138000    465.80222    100820.14    565.15621   -219.42914    860.84252    641.41338    1326.3096   -219.42914            0   -5.1942949            0            0            0            0            0            0 
10139000    488.91174    92928.941    578.12655   -245.50099    880.59885    635.09786    1297.7069   -245.50099            0   -5.6353762            0            0            0            0            0            0 
10140000    500.35091    96467.478    564.41782   -220.32296    859.71781    639.39485    1343.3281   -220.32296            0   -5.4286642            0            0            0            0            0            0 
10141000    496.26211    95556.159     558.9408   -227.95006    851.37523    623.42518    1315.0104   -227.95006            0   -5.4804374            0            0            0            0            0            0 
10142000    473.71094    97140.835    526.19011   -225.82247    801.48959    575.66712    1246.7731   -225.82247            0    -5.391034            0            0            0            0            0            0 
10143000    499.86319    92413.078    559.99556   -240.51857    852.98185    612.46328    1286.1539   -240.51857            0   -5.6668337            0            0            0            0            0            0 
10144000    496.15713    98072.141    557.57371   -215.97806    849.29289    633.31483    1342.9592   -215.97806            0     -5.33984            0            0            0            0            0            0 
10145000    445.72393       101518    587.37596   -218.57122     894.6875    676.11629    1336.0265   -218.57122            0   -5.1585882            0            0            0            0            0            0 
10146000    528.12185    88532.398    567.91461   -242.82406    865.04409    622.22003    1304.1068   -242.82406            0   -5.9152306            0            0            0            0            0            0 
10147000    510.40117    93154.731    561.94073   -231.24542    855.94471    624.69929    1318.1131   -231.24542            0   -5.6217171            0            0            0            0            0            0 
10148000    486.07993    96994.313    549.46374    -220.2959    836.93983    616.64393    1304.2344    -220.2959            0   -5.3991778            0            0            0            0            0            0 
10149000    490.10791    92064.671    558.69951   -243.34266     851.0077    607.66504    1265.7176   -243.34266            0   -5.6882791            0            0            0            0            0            0 
10150000    557.55931    90208.032    575.54346   -239.82323    876.66431    636.84109    1370.3614   -239.82323            0   -5.8053539            0            0            0            0            0            0 
10151000    514.14677    100917.31    572.33446    -211.2981    871.77638    660.47828    1417.1869    -211.2981            0   -5.1892935            0            0            0            0            0            0 
10152000    470.02933    92018.993    534.04569   -235.80918    813.45516    577.64597    1208.4266   -235.80918            0   -5.6911028            0            0            0            0            0            0 
10153000    459.00007    95378.336    550.24367   -228.78955    838.12782    609.33827    1247.8052   -228.78955            0   -5.4906551            0            0            0            0            0            0 
10154000    491.66046     94361.67    562.55638   -235.23706    856.88247    621.64541    1298.2529   -235.23706            0   -5.5498122            0            0            0            0            0            0 
10155000    600.64601    92315.944    588.68868   -221.49308    896.68703    675.19394    1483.8637   -221.49308            0   -5.6727963            0            0            0            0            0            0 
10156000    545.84788    99086.243    582.18306   -212.47029     886.7777    674.30741    1463.0965   -212.47029            0   -5.2851892            0            0            0            0            0            0 
10157000    577.83899    89580.683    581.48052   -239.43577     885.7076    646.27183    1401.1852   -239.43577            0   -5.8460097            0            0            0            0            0            0 
10158000    532.48655    91380.064    563.31324   -236.80544    858.03531    621.22987    1330.8664   -236.80544            0   -5.7308949            0            0            0            0            0            0 
10159000    471.68243    95479.231    553.92224   -242.81906    843.73099    600.91193     1257.714   -242.81906            0    -5.484853            0            0            0            0            0            0 
10160000    478.76185    97945.702    535.00834   -223.31908    814.92146    591.60238    1275.4838   -223.31908            0   -5.3467333            0            0            0            0            0            0 
10161000    552.76102    92546.693    577.01779   -233.74743       878.91    645.16257    1391.2233   -233.74743            0   -5.6586522            0            0            0            0            0            0 
10162000    525.48996    92553.732    567.46652   -239.07046    864.36156     625.2911    1334.5981   -239.07046            0   -5.6582218            0            0            0            0            0            0 
10163000    468.40153    94678.454    501.91636   -223.41823    764.51596    541.09773     1187.861   -223.41823            0   -5.5312431            0            0            0            0            0            0 
10164000    501.41172    90884.063    546.43023   -244.80707    832.31922    587.51215    1252.1087   -244.80707            0   -5.7621713            0            0            0            0            0            0 
10165000    483.03734    93248.602    547.40932   -238.00537    833.81056    595.80519    1252.7047   -238.00537            0   -5.6160579            0            0            0            0            0            0 
10166000    498.33208    100067.57    587.43805    -219.5881    894.78207    675.19397    1402.4512    -219.5881            0   -5.2333594            0            0            0            0            0            0 
10167000     493.4305    93289.405    527.89857   -223.63781    804.09189    580.45409    1251.7812   -223.63781            0   -5.6136015            0            0            0            0            0            0 
10168000     451.7101    94802.477    577.10358   -237.36658    879.04067    641.67408    1266.2071   -237.36658            0    -5.524007            0            0            0            0            0            0 
10169000    464.11557    97120.901     580.0023   -229.93569    883.45599     653.5203    1310.8976   -229.93569            0   -5.3921405            0            0            0            0            0            0 
10170000    645.85752    86808.384    573.38109   -240.29135    873.37059    633.07925    1450.7421   -240.29135            0    -6.032707            0            0            0            0            0            0 
10171000    465.47115    97711.794    571.44591   -230.44463    870.42294    639.97831    1303.2869   -230.44463            0   -5.3595326            0            0            0            0            0            0 
10172000    473.66751    94348.146    556.40827   -239.79328    847.51771    607.72443    1259.4772   -239.79328            0   -5.5506077            0            0            0            0            0            0 
10173000    479.65368    94276.868    541.04103   -238.44523    824.11042    585.66519    1245.1561   -238.44523            0   -5.5548042            0            0            0            0            0            0 
10174000     616.1104    94962.865    574.87471   -212.88882    875.64566    662.75684    1516.0303   -212.88882            0   -5.5146772            0            0            0            0            0            0 
10175000    455.30414    96712.233    547.25667   -232.05441    833.57805    601.52364    1243.7068   -232.05441            0   -5.4149256            0            0            0            0            0            0 
10176000     485.5152    94189.996    552.64152   -234.40934    841.78021    607.37087    1274.3058   -234.40934            0   -5.5599274            0            0            0            0            0            0 
10177000    550.69868    88971.335    527.74797   -234.48679     803.8625    569.37571    1283.9379   -234.48679            0    -5.886048            0            0            0            0            0            0 
10178000    546.59476    100682.67    594.75382   -203.71507     905.9254    702.21033    1504.8047   -203.71507            0   -5.2013869            0            0            0            0            0            0 
10179000    486.30187    99388.292    586.15043   -223.37897    892.82078    669.44181    1374.3248   -223.37897            0   -5.2691271            0            0            0            0            0            0 
10180000    568.97143    91375.131    555.97454   -234.50377    846.85705    612.35328    1370.5717   -234.50377            0   -5.7312043            0            0            0            0            0            0 
10181000    565.69973    91264.912    578.59464   -229.79737    881.31185    651.51448    1404.4637   -229.79737            0   -5.7381258            0            0            0            0            0            0 
10182000    440.60823     100067.9    559.26519   -225.83731    851.86935    626.03204    1269.0503   -225.83731            0   -5.2333419            0            0            0            0            0            0 
10183000    501.73828    92942.938      551.227   -228.38868    839.62563    611.23694    1291.3319   -228.38868            0   -5.6345276            0            0            0            0            0            0 
10184000    505.00878    92689.769    548.58436   -236.40385    835.60036    599.19652    1281.8599   -236.40385            0   -5.6499175            0            0            0            0            0            0 
10185000    381.09504    97546.714    564.22279   -245.40886    859.42073    614.01188    1156.1648   -245.40886            0   -5.3686026            0            0            0            0            0            0 
10186000    550.26119    92201.637    569.63786   -240.17083    867.66894     627.4981    1367.4158   -240.17083            0   -5.6798291            0            0            0            0            0            0 
10187000    416.05458    98426.823    570.04438    -236.6752    868.28814    631.61294    1228.8403    -236.6752            0   -5.3205979            0            0            0            0            0            0 
10188000    468.18707    97852.088    543.89346   -219.15328    828.45522    609.30194    1277.4388   -219.15328            0   -5.3518485            0            0            0            0            0            0 
10189000    530.42849    92585.882    575.21758   -240.81703    876.16793     635.3509    1351.5726   -240.81703            0    -5.656257            0            0            0            0            0            0 
10190000    516.24664    97974.633    543.75456   -203.06624    828.24365    625.17741    1362.8213   -203.06624            0   -5.3451544            0            0            0            0            0            0 
10191000    507.87722    100658.73    546.94551   -208.92069    833.10408    624.18339    1369.7494   -208.92069            0   -5.2026241            0            0            0            0            0            0 
10192000     519.0318    92585.594    562.20192   -236.65568    856.34255    619.68687    1320.5178   -236.65568            0   -5.6562746            0            0            0            0            0            0 
10193000    550.22612    97041.917    556.41421   -208.39704    847.52674    639.12971     1417.841   -208.39704            0   -5.3965293            0            0            0            0            0            0 
10194000     545.2229    92184.153    631.17445   -246.58519    961.40109     714.8159    1447.8197   -246.58519            0   -5.6809064            0            0            0            0            0            0 
10195000    463.31395    95081.736    551.89157   -235.56547    840.63789    605.07241    1247.5358   -235.56547            0   -5.5077827            0            0            0            0            0            0 
10196000    455.33114    100372.51    546.25374   -210.71512    832.05039    621.33527    1287.8627   -210.71512            0   -5.2174598            0            0            0            0            0            0 
10197000    566.61926    92630.715     557.4993      -225.02    849.17956    624.15956    1389.6191      -225.02            0   -5.6535194            0            0            0            0            0            0 
10198000    457.48535    92222.113    574.61464   -247.33845    875.24954    627.91109    1243.2128   -247.33845            0   -5.6785681            0            0            0            0            0            0 
10199000    495.97036    95781.339    571.28544   -225.64276    870.17852    644.53576    1337.3432   -225.64276            0    -5.467553            0            0            0            0            0            0 
10200000    518.35074    92490.793    577.55388   -237.83483    879.72656    641.89173    1341.0864   -237.83483            0   -5.6620722            0            0            0            0            0            0 
10201000    448.21519    92182.161    536.66085    -240.2489    817.43854    577.18964    1179.7622    -240.2489            0   -5.6810291            0            0            0            0            0            0 
10202000    457.13603    92627.695    551.35109   -245.03172    839.81464    594.78292    1212.3188   -245.03172            0   -5.6537038            0            0            0            0            0            0 
10203000    504.78974    96839.744    586.77485   -226.10325    893.77189    667.66864    1380.5874   -226.10325            0   -5.4077957            0            0            0            0            0            0 
10204000    518.33672    88628.739     546.1686   -249.92483     831.9207    581.99586    1251.9768   -249.92483            0   -5.9088006            0            0            0            0            0            0 
10205000     515.2605    92903.764    541.30887   -232.67914    824.51839    591.83926    1289.9689   -232.67914            0   -5.6369035            0            0            0            0            0            0 
10206000    420.75931    98369.501    523.67343   -231.00499    797.65619    566.65121    1170.2802   -231.00499            0   -5.3236983            0            0            0            0            0            0 
10207000    493.58858    92221.908    574.49948   -231.63358    875.07412    643.44055    1307.2984   -231.63358            0   -5.6785807            0            0            0            0            0            0 
10208000    510.77525    93202.336    560.90038   -229.18355    854.36005    625.17651    1319.4531   -229.18355            0   -5.6188457            0            0            0            0            0            0 
10209000    462.97123    94850.203     529.5045   -231.61317    806.53805    574.92488    1215.3497   -231.61317            0   -5.5212274            0            0            0            0            0            0 
10210000    486.83718    91630.106    537.14239   -239.43717    818.17203    578.73486    1229.3105   -239.43717            0   -5.7152563            0            0            0            0            0            0 
10211000    458.30107    99037.537    515.85005   -224.11766    785.73967      561.622    1223.5741   -224.11766            0   -5.2877884            0            0            0            0            0            0 
10212000    596.92357    91441.243    576.24405   -228.72922    877.73144    649.00222    1445.0456   -228.72922            0   -5.7270607            0            0            0            0            0            0 
10213000    518.61747    92529.732    581.14381   -235.14735    885.19472    650.04737    1349.8964   -235.14735            0   -5.6596894            0            0            0            0            0            0 
10214000    495.96895    96458.402    539.15342   -221.58052    821.23522     599.6547    1297.3575   -221.58052            0    -5.429175            0            0            0            0            0            0 
10215000    461.12258    98175.771    544.76827   -218.34967    829.78773    611.43806    1271.6701   -218.34967            0   -5.3342035            0            0            0            0            0            0 
10216000    514.35101    94039.508    540.11654   -221.77508    822.70224    600.92715     1306.344   -221.77508            0   -5.5688248            0            0            0            0            0            0 
10217000    550.33631    91711.402    528.07842   -227.49599    804.36585    576.86986    1312.9539   -227.49599            0   -5.7101902            0            0            0            0            0            0 
10218000    456.99281    95077.617    559.94598   -233.62425    852.90632    619.28208    1252.9527   -233.62425            0   -5.5080214            0            0            0            0            0            0 
10219000    554.91732    94468.106    603.84095   -229.95866    919.76687    689.80821    1454.3291   -229.95866            0   -5.5435593            0            0            0            0            0            0 
10220000    453.33486    97575.906    556.02169   -232.11368    846.92886    614.81518    1259.9309   -232.11368            0   -5.3669965            0            0            0            0            0            0 
10221000    526.15762     92428.84    539.50801    -238.7166    821.77533    583.05873    1292.3086    -238.7166            0   -5.6658673            0            0            0            0            0            0 
10222000    459.62363    90407.728    533.87028   -255.37204    813.18797    557.81593    1163.8315   -255.37204            0   -5.7925308            0            0            0            0            0            0 
10223000    510.98912     93822.48     566.5437   -237.50663    862.95593     625.4493    1324.6381   -237.50663            0   -5.5817065            0            0            0            0            0            0 
10224000    497.78465     97983.97    557.87117   -224.09877    849.74598    625.64722    1336.9793   -224.09877            0   -5.3446451            0            0            0            0            0            0 
10225000    543.94256    91732.156     574.1447   -242.13904    874.53372    632.39468    1360.0916   -242.13904            0   -5.7088983            0            0            0            0            0            0 
10226000     494.5202    93643.163    592.16618   -243.03037    901.98393    658.95356    1334.3146   -243.03037            0   -5.5923949            0            0            0            0            0            0 
10227000    462.02677    93186.053    538.03682   -243.39403    819.53443     576.1404    1204.0454   -243.39403            0   -5.6198275            0            0            0            0            0            0 
10228000    414.16993    92213.702    544.31158   -251.94371     829.0921    577.14839    1134.1416   -251.94371            0    -5.679086            0            0            0            0            0            0 
10229000    427.15888    97174.627    531.12794    -233.2216    809.01086    575.78925    1181.1555    -233.2216            0   -5.3891593            0            0            0            0            0            0 
10230000    440.97497    96846.967     564.7689   -239.48771    860.25257    620.76486    1243.6039   -239.48771            0   -5.4073923            0            0            0            0            0            0 
10231000    500.33876    91777.528    514.10321   -243.05234     783.0789    540.02656    1209.7205   -243.05234            0    -5.706076            0            0            0            0            0            0 
10232000    399.19355    99813.451    550.76297   -225.18319    838.91881    613.73563    1194.8324   -225.18319            0   -5.2466831            0            0            0            0            0            0 
10233000    449.58304     92884.87    565.25329   -256.07546    860.99038    604.91492    1213.9338   -256.07546            0     -5.63805            0            0            0            0            0            0 
10234000    527.31409    96187.368    576.01808   -226.73518    877.38724    650.65206    1390.3652   -226.73518            0   -5.4444732            0            0            0            0            0            0 
10235000    531.34803    97235.016    568.70627    -217.0058    866.24995    649.24415    1402.7344    -217.0058            0   -5.3858123            0            0            0            0            0            0 
10236000    482.08972    91385.364    569.40407   -246.43914    867.31282    620.87368    1263.3844   -246.43914            0   -5.7305626            0            0            0            0            0            0 
10237000    464.13481    94747.573    537.80028   -235.79741    819.17413    583.37672    1224.7164   -235.79741            0    -5.527208            0            0            0            0            0            0 
10238000    450.69778    95514.546    557.36563    -232.2238    848.97595    616.75216    1244.5659    -232.2238            0   -5.4828251            0            0            0            0            0            0 
10239000    508.59734    90286.819     555.3504   -243.58386    845.90636     602.3225    1272.0133   -243.58386            0   -5.8002879            0            0            0            0            0            0 
10240000    460.68732    95178.662    582.69914   -239.90944    887.56379    647.65436    1287.1267   -239.90944            0   -5.5021738            0            0            0            0            0            0 
10241000    471.95256    93676.674    571.91435    -241.8052    871.13647    629.33128    1274.1026    -241.8052            0   -5.5903943            0            0            0            0            0            0 
10242000    486.51307    96772.389    539.39314   -221.46008    821.60036    600.14028    1286.7688   -221.46008            0   -5.4115595            0            0            0            0            0            0 
10243000    507.28517    93066.203    581.82256   -239.93221     886.2286    646.29639    1334.8219   -239.93221            0   -5.6270647            0            0            0            0            0            0 
10244000    495.24584    93242.484    572.53707   -237.73225    872.08499    634.35274    1307.8108   -237.73225            0   -5.6164263            0            0            0            0            0            0 
10245000    461.34114    98669.206    538.43836   -214.57162    820.14605    605.57443    1269.4393   -214.57162            0   -5.3075277            0            0            0            0            0            0 
10246000    507.45692    93803.885    580.00206   -234.10398    883.45562    649.35164    1343.5697   -234.10398            0    -5.582813            0            0            0            0            0            0 
10247000    505.03325    95488.594    574.43239   -225.34665    874.97193    649.62528    1352.9362   -225.34665            0   -5.4843152            0            0            0            0            0            0 
10248000    428.84287    97988.493    586.63251      -237.56    893.55509    655.99509     1268.838      -237.56            0   -5.3443984            0            0            0            0            0            0 
10249000    462.99338    90631.496    529.86425   -249.87482    807.08602    557.21119    1169.1808   -249.87482            0   -5.7782291            0            0            0            0            0            0 
10250000    572.70953    91975.996     580.8773    -231.6845    884.78878    653.10429    1421.3229    -231.6845            0   -5.6937633            0            0            0            0            0            0 
10251000    485.09147    98905.733    574.60584   -227.88552    875.23613    647.35061    1347.0653   -227.88552            0   -5.2948351            0            0            0            0            0            0 
10252000    465.22711    97954.766    564.64165   -235.08601    860.05874    624.97272    1289.5821   -235.08601            0   -5.3462385            0            0            0            0            0            0 
10253000    554.60025    92242.218    585.85926    -231.4306    892.37727    660.94666    1407.0272    -231.4306            0   -5.6773303            0            0            0            0            0            0 
10254000    471.13693     94152.26    554.85897   -230.82355    845.15781    614.33426     1261.259   -230.82355            0   -5.5621559            0            0            0            0            0            0 
10255000    449.98577    96296.941    554.42551   -232.43746    844.49758    612.06012    1244.0166   -232.43746            0   -5.4382781            0            0            0            0            0            0 
10256000    468.41169    89950.309    546.88459   -250.65563    833.01129    582.35566    1196.8336   -250.65563            0   -5.8219872            0            0            0            0            0            0 
10257000    490.82435     97168.35    574.28017   -224.64992    874.74008    650.09016    1345.6377   -224.64992            0   -5.3895074            0            0            0            0            0            0 
10258000    437.03683    98553.712    548.70837   -231.89837    835.78927     603.8909     1232.046   -231.89837            0   -5.3137475            0            0            0            0            0            0 
10259000    501.29122    93155.798    572.01139   -239.45893    871.28428    631.82535    1312.8705   -239.45893            0   -5.6216527            0            0            0            0            0            0 
10260000    486.72141    98683.155    569.77448   -220.77988    867.87704    647.09716     1347.583   -220.77988            0   -5.3067775            0            0            0            0            0            0 
10261000     495.9478    96704.308    590.31562   -224.98623    899.16518    674.17895    1373.6306   -224.98623            0   -5.4153693            0            0            0            0            0            0 
10262000    464.90364    96308.433    534.68743   -223.88775    814.43265     590.5449    1243.5298   -223.88775            0   -5.4376292            0            0            0            0            0            0 
10263000    439.56334    99443.292    563.45263   -228.46344    858.24763    629.78419    1267.2734   -228.46344            0   -5.2662129            0            0            0            0            0            0 
10264000    485.92192    92633.921    558.57956   -241.37662    850.82499    609.44837    1265.9147   -241.37662            0   -5.6533237            0            0            0            0            0            0 
10265000    451.30098    94224.216    540.72762   -234.95305    823.63303    588.67998    1208.8413   -234.95305            0   -5.5579082            0            0            0            0            0            0 
10266000    475.62668    101327.49    535.18395   -212.10589    815.18895    603.08305    1305.9439   -212.10589            0   -5.1682872            0            0            0            0            0            0 
10267000    538.23943    94990.562    556.01502   -219.57643    846.91871    627.34228    1372.9869   -219.57643            0   -5.5130692            0            0            0            0            0            0 
10268000    498.87657    90656.099    540.08215   -232.64234    822.64985    590.00751    1249.5853   -232.64234            0   -5.7766609            0            0            0            0            0            0 
10269000    427.06298    97124.466     546.6432     -234.471    832.64361    598.17262    1203.0906     -234.471            0   -5.3919426            0            0            0            0            0            0 
10270000    516.93067     93096.06    589.33811   -245.85275    897.67624    651.82348    1353.6657   -245.85275            0     -5.62526            0            0            0            0            0            0 
10271000    558.03403    94415.853    583.54357   -221.39056    888.85003    667.45946    1435.8491   -221.39056            0   -5.5466273            0            0            0            0            0            0 
10272000     434.0258     99436.33    536.81204   -224.18241    817.66884    593.48643    1222.9006   -224.18241            0   -5.2665816            0            0            0            0            0            0 
10273000    514.57125    91692.389    542.88917   -241.59043     826.9255    585.33507      1273.44   -241.59043            0   -5.7113742            0            0            0            0            0            0 
10274000    478.92189    92231.071    557.48371   -251.23258     849.1558    597.92322    1242.1189   -251.23258            0   -5.6780165            0            0            0            0            0            0 
10275000     665.4392    87825.231    558.03248   -216.34093    849.99169    633.65076    1485.9725   -216.34093            0   -5.9628599            0            0            0            0            0            0 
10276000    480.48666    95303.026    573.09334   -228.06942     872.9323    644.86288    1312.6898   -228.06942            0   -5.4949939            0            0            0            0            0            0 
10277000    507.05078    97717.429    586.98043   -217.68002    894.08502    676.40501    1399.0074   -217.68002            0   -5.3592235            0            0            0            0            0            0 
10278000    491.68878     92245.59    583.17881   -235.68296    888.29443    652.61147     1314.084   -235.68296            0   -5.6771228            0            0            0            0            0            0 
10279000    518.80567    88147.689    529.20398   -253.42115    806.08029    552.65914    1219.6065   -253.42115            0   -5.9410468            0            0            0            0            0            0 
10280000    459.97335    101664.85    584.10106   -217.23823    889.69919    672.46096    1354.4531   -217.23823            0    -5.151137            0            0            0            0            0            0 
10281000    437.21318    96568.438    536.28173   -234.36058    816.86108     582.5005    1198.2504   -234.36058            0   -5.4229887            0            0            0            0            0            0 
10282000    525.09212    93893.725    559.27485   -234.59212    851.88406    617.29194    1336.3235   -234.59212            0   -5.5774712            0            0            0            0            0            0 
10283000    523.40573    94232.791    566.20211   -227.18921    862.43562    635.24641    1354.5569   -227.18921            0   -5.5574025            0            0            0            0            0            0 
10284000    508.59388    97800.732     544.1063   -215.47802    828.77942     613.3014    1338.7207   -215.47802            0   -5.3546588            0            0            0            0            0            0 
10285000    421.19692    91163.355    561.04062   -254.36396    854.57367    600.20971    1160.2011   -254.36396            0   -5.7445181            0            0            0            0            0            0 
10286000    487.71057    94115.612    562.18761   -225.03695    856.32076    631.28381    1300.7054   -225.03695            0   -5.5643217            0            0            0            0            0            0 
10287000    434.92924    97947.661    552.09171   -225.98634    840.94274     614.9564    1236.2381   -225.98634            0   -5.3466263            0            0            0            0            0            0 
10288000    536.05619    93244.285    570.45048   -228.47103    868.90671    640.43568    1369.4036   -228.47103            0   -5.6163179            0            0            0            0            0            0 
10289000    547.18423    96194.419    576.75409   -218.03765    878.50833    660.47069    1428.1138   -218.03765            0   -5.4440741            0            0            0            0            0            0 
10290000     569.3689    91333.236    595.90147   -235.63312     907.6735    672.04039    1430.4406   -235.63312            0   -5.7338332            0            0            0            0            0            0 
10291000    518.31324     91430.94    542.86618    -246.7283    826.89048    580.16218    1271.2948    -246.7283            0    -5.727706            0            0            0            0            0            0 
10292000    424.71577    99581.589    568.18652   -230.48326    865.45827    634.97501    1251.7877   -230.48326            0   -5.2588993            0            0            0            0            0            0 
10293000    506.37688    91760.623    569.46191   -247.04506    867.40093    620.35587    1298.0069   -247.04506            0   -5.7071272            0            0            0            0            0            0 
10294000    450.69853    93758.728    552.32283   -240.71728    841.29478     600.5775    1216.8514   -240.71728            0   -5.5855018            0            0            0            0            0            0 
10295000    536.55526    93100.779      528.705   -221.72615    805.32025     583.5941    1312.1178   -221.72615            0   -5.6249749            0            0            0            0            0            0 
10296000     544.2226    94164.751    583.75828   -230.21368    889.17708     658.9634    1406.3423   -230.21368            0    -5.561418            0            0            0            0            0            0 
10297000    504.40578    100374.27    575.53383   -210.32605    876.64965    666.32359    1404.7009   -210.32605            0   -5.2173683            0            0            0            0            0            0 
10298000    530.77339     90495.96    531.33111   -232.12796    809.32033    577.19236    1277.7022   -232.12796            0   -5.7868831            0            0            0            0            0            0 
10299000     465.0539    90391.078    557.06666   -262.41403    848.52055    586.10653     1199.169   -262.41403            0   -5.7935978            0            0            0            0            0            0 
10300000     468.2475    97206.853    588.67404   -230.34818    896.66472    666.31654    1330.1333   -230.34818            0   -5.3873727            0            0            0            0            0            0 
10301000    566.06516     97698.05    601.59871   -211.42367     916.3515    704.92784    1511.4721   -211.42367            0   -5.3602865            0            0            0            0            0            0 
10302000    541.64486     86056.98    551.26473   -259.90915     839.6831    579.77394    1259.5668   -259.90915            0   -6.0853814            0            0            0            0            0            0 
10303000    521.58319     91764.46    571.94524   -237.66965    871.18353    633.51388    1331.5437   -237.66965            0   -5.7068885            0            0            0            0            0            0 
10304000    472.18758    95070.711    553.76909   -235.28185    843.49772    608.21587    1262.9081   -235.28185            0   -5.5084215            0            0            0            0            0            0 
10305000    426.08375    99574.307    531.47125   -222.32322    809.53379    587.21057    1205.9648   -222.32322            0   -5.2592839            0            0            0            0            0            0 
10306000    568.51479    91722.445    563.03888   -232.56549     857.6174    625.05191    1385.5415   -232.56549            0   -5.7095027            0            0            0            0            0            0 
10307000    422.18091     94145.82    556.41096   -240.14344     847.5218    607.37836    1187.0413   -240.14344            0   -5.5625363            0            0            0            0            0            0 
10308000    509.84042    95039.886    558.28345   -229.90779    850.37397    620.46619    1327.1352   -229.90779            0    -5.510208            0            0            0            0            0            0 
10309000    472.18413     96845.58    560.88958   -224.51889    854.34361    629.82473    1296.7345   -224.51889            0   -5.4074697            0            0            0            0            0            0 
10310000    453.21333    94038.133     553.9625   -238.29865    843.79232    605.49368     1227.053   -238.29865            0   -5.5689062            0            0            0            0            0            0 
10311000    571.50325    91605.582    543.46154   -228.37803    827.79732    599.41929    1362.9325   -228.37803            0   -5.7167864            0            0            0            0            0            0 
10312000    474.69586    99371.311    573.09538   -220.65916    872.93541    652.27626    1340.2191   -220.65916            0   -5.2700275            0            0            0            0            0            0 
10313000    507.70699    92081.362     585.4268   -242.35129    891.71855    649.36726    1331.1732   -242.35129            0    -5.687248            0            0            0            0            0            0 
10314000    461.73047     95850.35     569.6979   -232.74317    867.76038    635.01721    1280.4606   -232.74317            0   -5.4636164            0            0            0            0            0            0 
10315000    467.26181    91418.262    540.51779   -247.04549    823.31341    576.26793    1199.2408   -247.04549            0   -5.7285003            0            0            0            0            0            0 
10316000    429.21201    101565.07     546.8563   -213.25264    832.96821    619.71556     1255.474   -213.25264            0   -5.1561975            0            0            0            0            0            0 
10317000    560.27668    92426.105    579.86103   -231.72069     883.2408    651.52011    1406.7394   -231.72069            0    -5.666035            0            0            0            0            0            0 
10318000     582.1218    90125.873    570.62969   -235.05403    869.17968    634.12565    1399.2627   -235.05403            0    -5.810646            0            0            0            0            0            0 
10319000    552.85446    94023.366    585.20327   -216.63064    891.37807    674.74743    1432.8405   -216.63064            0   -5.5697808            0            0            0            0            0            0 
10320000    473.06879    94593.976    550.56621    -237.4233    838.61911    601.19581    1253.8207    -237.4233            0   -5.5361828            0            0            0            0            0            0 
10321000    521.14708    92087.694    524.54962   -226.39868     798.9908    572.59212     1272.495   -226.39868            0    -5.686857            0            0            0            0            0            0 
10322000    520.24957    94481.518    571.60595   -218.28154    870.66672    652.38518    1369.2454   -218.28154            0   -5.5427724            0            0            0            0            0            0 
10323000    525.53481    91081.401    559.83792   -238.23518    852.74172    614.50654    1312.5896   -238.23518            0    -5.749687            0            0            0            0            0            0 
10324000    453.76138    95326.477    570.49394   -238.04037    868.97291    630.93254    1261.7693   -238.04037            0   -5.4936421            0            0            0            0            0            0 
10325000    529.42789    101066.09     554.8651   -199.88935    845.16715     645.2778    1425.6255   -199.88935            0   -5.1816543            0            0            0            0            0            0 
10326000    458.13113    95086.893    558.74891   -232.04409    851.08296    619.03887    1254.3498   -232.04409            0    -5.507484            0            0            0            0            0            0 
10327000    501.88002    92269.378    520.30664   -225.97658    792.52791    566.55133    1241.9083   -225.97658            0   -5.6756592            0            0            0            0            0            0 
10328000    439.10451    100035.24    579.37186   -223.47284     882.4957    659.02286    1299.6374   -223.47284            0   -5.2350506            0            0            0            0            0            0 
10329000     497.9333      94893.3    571.58106   -227.20999    870.62881    643.41881    1332.5194   -227.20999            0   -5.5187199            0            0            0            0            0            0 
10330000    465.08079    95117.967    554.93739   -234.89819    845.27727    610.37908    1255.5382   -234.89819            0   -5.5056848            0            0            0            0            0            0 
10331000    468.22317     99336.76    576.63947   -231.55656    878.33375    646.77719    1325.1037   -231.55656            0   -5.2718605            0            0            0            0            0            0 
10332000     460.9891    96612.874    557.52117   -239.10308    849.21287    610.10979    1259.6433   -239.10308            0   -5.4204945            0            0            0            0            0            0 
10333000    491.41492    95970.153    552.81148    -225.6032     842.0391     616.4359    1304.2331    -225.6032            0    -5.456796            0            0            0            0            0            0 
10334000    427.23693    97536.896    522.72304   -226.04545    796.20857    570.16312    1177.8972   -226.04545            0    -5.369143            0            0            0            0            0            0 
10335000    546.14554    87867.362     577.6106   -244.39607    879.81296    635.41689     1335.278   -244.39607            0   -5.9600008            0            0            0            0            0            0 
10336000    551.23179    92647.835    524.03521   -222.80147    798.20725    575.40578    1320.2156   -222.80147            0   -5.6524747            0            0            0            0            0            0 
10337000    502.64306    95793.056    594.25344   -224.96106    905.16324    680.20218    1382.4164   -224.96106            0   -5.4668842            0            0            0            0            0            0 
10338000    418.98855    95219.712    566.98269   -243.95775    863.62459    619.66684    1201.5086   -243.95775            0   -5.4998018            0            0            0            0            0            0 
10339000    482.17148    89756.236    518.71158    -241.7484    790.09834    548.34994    1179.5137    -241.7484            0   -5.8345756            0            0            0            0            0            0 
10340000    453.73261    90267.894    544.08403   -252.06439     828.7455    576.68111     1174.004   -252.06439            0    -5.801504            0            0            0            0            0            0 
10341000    533.27096    98702.125    550.69546    -205.5821    838.81599    633.23389     1400.861    -205.5821            0   -5.3057576            0            0            0            0            0            0 
10342000    501.66732    99342.864    595.73707   -216.98654    907.42309    690.43655    1417.2591   -216.98654            0   -5.2715366            0            0            0            0            0            0 
10343000     543.8915    90989.484    561.04804   -233.80485    854.58497    620.78012    1342.5178   -233.80485            0   -5.7554953            0            0            0            0            0            0 
10344000    538.62979    96872.903    565.67223    -215.2803    861.62852    646.34822      1407.32    -215.2803            0   -5.4059446            0            0            0            0            0            0 
10345000    515.00655    96884.572     556.0768   -210.79239    847.01281    636.22042    1363.9052   -210.79239            0   -5.4052935            0            0            0            0            0            0 
10346000    569.78529    92992.774    565.41494    -229.5293     861.2366     631.7073    1404.4525    -229.5293            0   -5.6315079            0            0            0            0            0            0 
10347000    427.87216    99724.904     543.4665   -220.83302    827.80488    606.97186    1229.2629   -220.83302            0   -5.2513417            0            0            0            0            0            0 
10348000    492.11425    94273.799    542.21238   -230.17019    825.89461    595.72441    1272.3257   -230.17019            0   -5.5549851            0            0            0            0            0            0 
10349000    516.77829    95195.877    572.94148    -229.7127    872.70099     642.9883    1360.4493    -229.7127            0   -5.5011788            0            0            0            0            0            0 
10350000    482.91663    101645.03    589.48425   -213.67085    897.89884    684.22798     1400.098   -213.67085            0   -5.1521412            0            0            0            0            0            0 
10351000    494.52974    92128.209    584.97389   -240.53494    891.02868    650.49374    1314.9416   -240.53494            0   -5.6843561            0            0            0            0            0            0 
10352000    533.62199    93149.486    543.53238   -232.49269    827.90523    595.41254    1320.3325   -232.49269            0   -5.6220337            0            0            0            0            0            0 
10353000    494.58304    99216.311    570.51407   -217.78508    869.00357     651.2185    1366.8644   -217.78508            0   -5.2782606            0            0            0            0            0            0 
[...]
14939000     474.1909    95213.754    560.13736   -230.49774    853.19783    622.70009    1281.1592   -230.49774            0    -5.500146            0            0            0            0            0            0 
14940000    543.92427    90542.828    581.47298   -248.93106    885.69611    636.76505    1355.0031   -248.93106            0   -5.7838876            0            0            0            0            0            0 
14941000    405.16525    99364.185    530.59921   -235.91923     808.2055    572.28627    1159.4212   -235.91923            0   -5.2704055            0            0            0            0            0            0 
14942000    552.72011    92558.035    561.04462   -234.49771    854.57977    620.08206     1366.179   -234.49771            0   -5.6579588            0            0            0            0            0            0 
14943000    595.39761    96402.668     568.7346   -206.54516     866.2931    659.74794    1496.8377   -206.54516            0   -5.4323138            0            0            0            0            0            0 
14944000    543.32798    95771.197    592.64662   -216.34929    902.71574    686.36644     1445.246   -216.34929            0    -5.468132            0            0            0            0            0            0 
14945000    490.30786    88657.375    556.13227    -257.7755     847.0973     589.3218    1223.2785    -257.7755            0   -5.9068921            0            0            0            0            0            0 
14946000    441.90364    97221.546    509.10662   -220.65714    775.46812    554.81098    1181.3758   -220.65714            0   -5.3865585            0            0            0            0            0            0 
14947000    508.72185    96771.927    573.21487   -221.22173    873.11742    651.89569    1369.8647   -221.22173            0   -5.4115854            0            0            0            0            0            0 
14948000    563.85449    93331.683    584.54144   -231.68979    890.36998    658.68019     1426.169   -231.68979            0   -5.6110586            0            0            0            0            0            0 
14949000    635.93943    86741.752    555.37632   -228.66175    845.94584    617.28408    1421.7726   -228.66175            0   -6.0373411            0            0            0            0            0            0 
14950000    465.81533    100331.36    525.43375   -216.10171    800.33751     584.2358    1265.8308   -216.10171            0   -5.2195995            0            0            0            0            0            0 
14951000    491.85826    95773.239    576.27194   -230.36021    877.77392     647.4137    1334.4189   -230.36021            0   -5.4680154            0            0            0            0            0            0 
14952000    495.83313    95052.575    579.01887   -228.46666    881.95803    653.49137    1340.8372   -228.46666            0   -5.5094725            0            0            0            0            0            0 
14953000    509.36269    93608.907     569.0907   -233.30494     866.8355    633.53057    1328.9074   -233.30494            0   -5.5944414            0            0            0            0            0            0 
14954000    420.77848     94467.61    568.60648   -248.11985    866.09794    617.97809    1197.6901   -248.11985            0   -5.5435884            0            0            0            0            0            0 
14955000    457.90282     91755.39    520.87462   -245.12829    793.39306    548.26477    1161.0112   -245.12829            0   -5.7074527            0            0            0            0            0            0 
14956000      432.815    97525.711    579.05116   -232.68879    882.00722    649.31843    1264.9166   -232.68879            0   -5.3697588            0            0            0            0            0            0 
14957000    559.95423    93470.687    559.51405   -227.20277     852.2484    625.04563    1388.3607   -227.20277            0   -5.6027142            0            0            0            0            0            0 
14958000    475.22029    96538.875    559.79071     -229.454    852.66981     623.2158    1292.2882     -229.454            0   -5.4246494            0            0            0            0            0            0 
14959000    529.91808    93151.279     550.1953   -227.16748    838.05414    610.88666    1330.7888   -227.16748            0   -5.6219255            0            0            0            0            0            0 
14960000    513.85924    95096.339    551.64602   -220.37725    840.26387    619.88662     1332.549   -220.37725            0    -5.506937            0            0            0            0            0            0 
14961000    508.71061      95403.9    595.05757   -233.76555    906.38809    672.62253    1380.4262   -233.76555            0   -5.4891838            0            0            0            0            0            0 
14962000    552.67776    90150.216    553.86206   -232.60318    843.63932    611.03614    1337.6684   -232.60318            0    -5.809077            0            0            0            0            0            0 
14963000    432.79299    102607.47    545.04163   -216.71959     830.2041    613.48451    1261.1267   -216.71959            0   -5.1038148            0            0            0            0            0            0 
14964000     508.9941      93896.3    555.58676   -231.67447    846.26638    614.59191    1311.5989   -231.67447            0   -5.5773183            0            0            0            0            0            0 
14965000     496.7896    92632.083    590.94238   -241.74389    900.11984    658.37595    1329.5108   -241.74389            0   -5.6534359            0            0            0            0            0            0 
14966000    512.86404    96049.389    549.05802   -214.09128    836.32185    622.23057    1340.6412   -214.09128            0   -5.4522944            0            0            0            0            0            0 
14967000    464.61683    94344.494    539.98712   -230.80925    822.50511    591.69586    1230.9704   -230.80925            0   -5.5508225            0            0            0            0            0            0 
14968000      441.788    94250.166     522.7989   -243.13586    796.32411    553.18825    1160.4444   -243.13586            0   -5.5563779            0            0            0            0            0            0 
14969000    486.20346    89797.632    575.85241   -247.91865    877.13489    629.21625    1265.9514   -247.91865            0   -5.8318859            0            0            0            0            0            0 
14970000     498.0561    91392.637     568.6193   -248.36398    866.11748     617.7535    1281.5965   -248.36398            0   -5.7301065            0            0            0            0            0            0 
14971000    478.04375     98815.26    571.78375   -231.76252    870.93755    639.17502     1328.093   -231.76252            0   -5.2996829            0            0            0            0            0            0 
14972000    562.78263     93107.32    613.59211   -237.86251    934.61978    696.75727    1460.9456   -237.86251            0   -5.6245797            0            0            0            0            0            0 
14973000    481.54598    100271.61    562.47903   -215.49494    856.76465    641.26971    1345.4626   -215.49494            0   -5.2227102            0            0            0            0            0            0 
14974000    487.68661      93804.9    571.09558   -239.95735    869.88932    629.93197    1297.1108   -239.95735            0   -5.5827526            0            0            0            0            0            0 
14975000    582.49273    88965.116    556.23837   -238.92173    847.25892    608.33719    1364.1011   -238.92173            0   -5.8864594            0            0            0            0            0            0 
14976000    435.87103    94773.148    537.75878   -232.84435    819.11091    586.26656     1188.714   -232.84435            0   -5.5257165            0            0            0            0            0            0 
14977000    493.62775    95365.911    528.50656   -215.29847    805.01799    589.71952    1276.2639   -215.29847            0   -5.4913704            0            0            0            0            0            0 
14978000    542.64597    91087.457    545.79042    -235.4688    831.34465    595.87586    1316.7361    -235.4688            0   -5.7493047            0            0            0            0            0            0 
14979000    473.55088    98384.008    566.82264   -230.85432     863.3808    632.52649    1311.9914   -230.85432            0   -5.3229133            0            0            0            0            0            0 
14980000    468.47488    96217.254    585.24183   -238.95668    891.43681    652.48013    1309.8581   -238.95668            0   -5.4427821            0            0            0            0            0            0 
14981000    468.94477    90920.846    549.54811   -246.92885    837.06834     590.1395    1211.9543   -246.92885            0   -5.7598402            0            0            0            0            0            0 
14982000    465.68582    95741.761    544.59286   -223.86285    829.52054    605.65769    1255.8927   -223.86285            0   -5.4698131            0            0            0            0            0            0 
14983000    495.43873    90841.026    547.08157   -244.14945    833.31132    589.16187    1245.5306   -244.14945            0   -5.7649013            0            0            0            0            0            0 
14984000     444.8067    95821.455    575.06732    -240.3436    875.93905    635.59545     1257.194    -240.3436            0   -5.4652639            0            0            0            0            0            0 
14985000    462.47992    98485.506    557.73222   -217.73628    849.53433    631.79805    1296.0626   -217.73628            0   -5.3174276            0            0            0            0            0            0 
14986000     413.7114    92559.152    530.45807    -255.4863    807.99052    552.50422    1110.9651    -255.4863            0   -5.6578905            0            0            0            0            0            0 
14987000    534.29296    94215.289    561.69844   -220.13026    855.57566     635.4454    1369.5817   -220.13026            0   -5.5584348            0            0            0            0            0            0 
14988000    493.61068    99917.519    566.28031   -209.28096    862.55474    653.27378    1372.5606   -209.28096            0   -5.2412185            0            0            0            0            0            0 
14989000      486.525    90235.377    564.84198   -248.64481    860.36388    611.71907    1251.9813   -248.64481            0   -5.8035946            0            0            0            0            0            0 
14990000    556.55507    94161.266    594.15292    -225.5362    905.01012    679.47392    1443.7607    -225.5362            0   -5.5616239            0            0            0            0            0            0 
14991000    522.08893    98400.807     581.7813   -222.96425    886.16574    663.20149    1412.4382   -222.96425            0   -5.3220046            0            0            0            0            0            0 
14992000    625.10874    92345.482     582.3496   -223.86274    887.03138    663.16864    1505.0427   -223.86274            0   -5.6709818            0            0            0            0            0            0 
14993000    504.32634    98613.776    577.94209   -216.68677    880.31788    663.63111    1388.9436   -216.68677            0    -5.310511            0            0            0            0            0            0 
14994000    512.03353    94449.392     583.5633   -227.83239    888.88007    661.04768     1366.347   -227.83239            0   -5.5446576            0            0            0            0            0            0 
14995000    488.99639    91604.162    527.55737   -240.11985    803.57219    563.45234    1216.7284   -240.11985            0    -5.716875            0            0            0            0            0            0 
14996000    489.92845    96382.219    546.13135   -219.61407    831.86397     612.2499    1300.9109   -219.61407            0   -5.4334664            0            0            0            0            0            0 
14997000    484.11714    97805.058     554.2282   -222.97351    844.19703    621.22352    1311.7617   -222.97351            0   -5.3544219            0            0            0            0            0            0 
14998000    560.86924    92987.316    572.64203   -229.97464    872.24486    642.27022    1402.8788   -229.97464            0   -5.6318385            0            0            0            0            0            0 
14999000    452.11055    97437.227    572.35572   -233.58905    871.80877    638.21972    1280.6788   -233.58905            0   -5.3746351            0            0            0            0            0            0 
15000000    430.41094    96821.951     568.6109    -241.0328    866.10467    625.07187    1232.8331    -241.0328            0   -5.4087895            0            0            0            0            0            0 
Loop time of 1049.48 on 8 procs for 5000000 steps with 512 atoms

Pair  time (%) = 505.905 (48.2054)
Bond  time (%) = 0.44361 (0.0422696)
Neigh time (%) = 26.3785 (2.51348)
Comm  time (%) = 362.534 (34.5442)
Outpt time (%) = 0.25627 (0.0244188)
Other time (%) = 153.961 (14.6703)

Nlocal:    64 ave 69 max 56 min
Histogram: 1 0 0 2 0 0 2 0 0 3
Nghost:    903.625 ave 923 max 887 min
Histogram: 1 0 2 1 1 1 0 0 1 1
Neighs:    3421.25 ave 3941 max 2795 min
Histogram: 1 1 1 0 0 1 1 1 0 2

Total # of neighbors = 27370
Ave neighs/atom = 53.457
Ave special neighs/atom = 0
Neighbor list builds = 109946
Dangerous builds = 0

Averages
Group Pressure(MPa) Volume(m3) Temperature(K) PE(J) KE(J) ET(J) ET^2(J) H(J) H^2(J^2) V^2(m6) V*H(m3*J) Hconf(J) Uext*Hconf(J^2) V*Hconf(m3*J) Uext(J)
Block1 50.183607050408632233 9.4716579726458011204e-26 560.53578934214704077 -1.6124176533607093869e-18 5.9319746174469865187e-18 4.3195569640862821393e-18 1.8710958880394960993e-35 9.0643748214845927652e-18 8.2453280650156109399e-35 8.9824379611604147611e-51 8.5850171177648435904e-43 3.1324002040376100983e-18 -5.0295822785679869834e-36 2.9663945702277812105e-43 -1.6124176533607093869e-18
Block2 50.002501388633987744 9.4804124422533591501e-26 560.38149923863318236 -1.6110213604083854302e-18 5.930341813627553063e-18 4.3193204532191807291e-18 1.8713961400762384866e-35 9.0522541915337669543e-18 8.2251194765581535833e-35 8.9995731010150346658e-51 8.5829930206417136718e-43 3.1219123779061980987e-18 -5.0057000425566985525e-36 2.960512803029084831e-43 -1.6110213604083854302e-18
Block3 50.027371722580113556 9.467041779266173729e-26 559.67768712709255396 -1.6123246503483447846e-18 5.9228935905872184758e-18 4.3105689402388788912e-18 1.8632229113540915876e-35 9.0381682926003677053e-18 8.1989668558840325754e-35 8.9734221601799760537e-51 8.5552122666180419945e-43 3.1152747020131453776e-18 -5.0019768203514930017e-36 2.9483894115577070586e-43 -1.6123246503483447846e-18
Block4 50.034532847183250226 9.4724689876309863727e-26 560.22947348742854956 -1.6120057901491170415e-18 5.9287329727390871387e-18 4.3167271825899710601e-18 1.8686619071422739813e-35 9.0486635177439272578e-18 8.2161354492745262341e-35 8.9841670360060435546e-51 8.5715349178887925624e-43 3.1199305450048474377e-18 -5.0068577441508551e-36 2.9558705744703374173e-43 -1.6120057901491170415e-18
Block5 49.998858854990714917 9.4669230278326479968e-26 560.06818708836976839 -1.6127380961798336586e-18 5.9270261293161398575e-18 4.3142880331363056212e-18 1.8670205425017826317e-35 9.0407694687542833679e-18 8.2036967052731391382e-35 8.9728148393386760929e-51 8.5597241900222395092e-43 3.1137433394381396584e-18 -4.9984922647115024683e-36 2.9482551857139477974e-43 -1.6127380961798336586e-18
Ave_blocks 50.049374372759338314 9.4717008419257925259e-26 560.17852725673424175 -1.6121015100892780219e-18 5.9281938247433968567e-18 4.3160923146541238422e-18 1.8682794778227764504e-35 9.0488460584233882264e-18 8.2178493104010924942e-35 8.9824830195400285508e-51 8.5708963025871269029e-43 3.120652233679987903e-18 -5.0085218300677078894e-36 2.9558845089997719019e-43 -1.6121015100892780219e-18
Stdev_blocks 0.068515244174536416022 4.919720281514759006e-29 0.29476944541307076308 5.8836479059396579426e-22 3.1194526762363029223e-21 3.3642481568829666586e-21 2.9981922850305359487e-38 9.295559781563506402e-21 1.6539153010804139555e-37 9.700326873731676381e-54 1.1974480547572699999e-45 6.5844403256645074453e-21 1.0933466889771123795e-38 7.0180587953515141987e-46 5.8836479059396579426e-22






Properties
Group rho(kg/m3) Cp(J/K) Cp_conf(J/K) Cp_id(J/K) Cp2(J/K) kT(1/Pa) aP(1/K) aP2(1/K) Cv(J/K) uJT(K/Pa) sos(m/s) Cv2(J/K) uJT2(K/Pa) sos2(m/s) CvNVT(J/K)
Block1 144.00049283420534607 6.6940871649102207855e-20 -2.7796324861398832792e-21 4.2638151891200959689e-20 3.985851940506107641e-20 1.5289582778767007502e-08 -0.00010920117375675093103 -0.00012357995215903547193 6.6899463260327024182e-20 -1.5015384405230820631e-06 674.14692566189739864 3.9805488411391113018e-20 -2.5409295706219902737e-06 674.38716487941940159 1.2076180333457148089e-20
Block2 143.86751887915124826 7.101385976694457919e-20 -6.5155766245227933875e-22 4.2630309730471646608e-20 4.1978752068019370279e-20 1.602079419200483176e-08 0.00026340720090905659712 0.00019733340566091526233 7.0783777967287678988e-20 -1.1379500844971203901e-06 659.75287608620692481 4.1849621755715218448e-20 -2.0086470311017593156e-06 659.69865060145446023 1.3246612448711820598e-20
Block3 144.07070844507759944 6.9641880516483481499e-20 -3.2341836698401028649e-21 4.2594531546133074101e-20 3.9360347876292971236e-20 1.4946851686838642068e-08 -0.00030760683370791692091 -0.00020862573483687517589 6.9306456217783362605e-20 -1.5934225295122727673e-06 683.10220920052108795 3.9206057683960800878e-20 -2.6860645666339275034e-06 682.79474241956245351 1.1844554590571977153e-20
Block4 143.98816378274949557 6.5318672065266312345e-20 -1.2718174250967715404e-21 4.2622582253983384276e-20 4.135076482888661424e-20 1.5559610744272180434e-08 5.2735718019203964703e-05 0.00012815677563329517835 6.5309187003917321553e-20 -1.4073484797573453408e-06 668.14200192043449533 4.1294748639505312499e-20 -2.1262901051035792921e-06 668.54646874374918752 1.2112233469891322664e-20
Block5 144.07251564295029311 6.9607605227005323329e-20 -1.1457589682472152562e-21 4.2614383617752617289e-20 4.146862464950540128e-20 1.4414133925976504238e-08 0.00021886422891076391705 0.0001215475314189882756 6.9431403252549917525e-20 -1.193329100497868149e-06 694.80914952303828613 4.1414280414001880797e-20 -2.1275031933833522899e-06 694.38432708466143595 1.3190311209599959835e-20
Ave_blocks 143.99987991682678512 6.8504577844960388066e-20 -1.8165900423552504559e-21 4.2619991807908340004e-20 4.08034017655530903e-20 1.5246194665571833531e-08 2.3639828074871329451e-05 2.2966405143457614371e-05 6.8346057540373063378e-20 -1.366717726957537615e-06 675.99063247841968405 4.0714039380914862721e-20 -2.2978868933689220738e-06 675.96227074576938776 1.2493978410446447172e-20
Stdev_blocks 0.074765923900718997408 2.0689028609504374793e-21 1.0041030247880258103e-21 1.4984226964196716686e-23 1.0098300197974886457e-21 5.4443509923544618603e-10 0.00021157439035907117555 0.0001589326005011536605 1.967640184615257059e-21 1.7528308555205844751e-07 12.110954515204912951 1.0214285819341122461e-21 2.6528754583502530575e-07 11.899876024131012642 5.9889449710752054092e-22






