LAMMPS (28 Oct 2012)
Scanning data file ...
Reading data file ...
  orthogonal box = (0 0 0) to (100 100 100)
  2 by 2 by 2 MPI processor grid
  512 atoms
Finding 1-2 1-3 1-4 neighbors ...
  0 = max # of 1-2 neighbors
  0 = max # of 1-3 neighbors
  0 = max # of 1-4 neighbors
  1 = max # of special neighbors
WARNING: Resetting reneighboring criteria during minimization (min.cpp:173)
Setting up minimization ...
Memory usage per processor = 4.05499 Mbytes
Step Temp E_pair E_mol TotEng Press 
       0       460.15    1409.7233            0     2110.621    444.55609 
     701       460.15   -217.27527            0    483.62242    31.811195 
Loop time of 0.0548698 on 8 procs for 701 steps with 512 atoms

Minimization stats:
  Stopping criterion = energy tolerance
  Energy initial, next-to-last, final = 
         1409.72334813     -217.256630745     -217.275265106
  Force two-norm initial, final = 5034.49 0.337455
  Force max component initial, final = 2457.89 0.147661
  Final line search alpha, max atom move = 0.254892 0.0376377
  Iterations, force evaluations = 701 710

Pair  time (%) = 0.00895044 (16.3121)
Bond  time (%) = 6.27041e-05 (0.114278)
Neigh time (%) = 0.00314614 (5.73383)
Comm  time (%) = 0.0218789 (39.8743)
Outpt time (%) = 0 (0)
Other time (%) = 0.0208316 (37.9655)

Nlocal:    64 ave 74 max 52 min
Histogram: 1 0 0 1 1 2 0 2 0 1
Nghost:    235.125 ave 266 max 224 min
Histogram: 4 0 2 0 0 1 0 0 0 1
Neighs:    316.25 ave 371 max 226 min
Histogram: 1 0 0 1 1 1 0 1 0 3

Total # of neighbors = 2530
Ave neighs/atom = 4.94141
Ave special neighs/atom = 0
Neighbor list builds = 60
Dangerous builds = 0
Setting up run ...
Memory usage per processor = 3.36354 Mbytes
Step Temp E_pair E_mol TotEng Press Volume 
     701       460.15   -217.27527            0    483.62242    31.811195      1000000 
 5000701    461.71823   -308.84307            0    394.44333    476.73128    75668.524 
Loop time of 1202.35 on 8 procs for 5000000 steps with 512 atoms

Pair  time (%) = 609.104 (50.6593)
Bond  time (%) = 0.441354 (0.0367075)
Neigh time (%) = 27.1199 (2.25557)
Comm  time (%) = 408.366 (33.9639)
Outpt time (%) = 4.37796e-05 (3.64116e-06)
Other time (%) = 157.322 (13.0845)

Nlocal:    64 ave 74 max 56 min
Histogram: 3 0 0 1 0 2 0 0 0 2
Nghost:    1054.88 ave 1099 max 1025 min
Histogram: 2 0 0 2 2 0 1 0 0 1
Neighs:    4383 ave 5559 max 3620 min
Histogram: 2 1 0 1 2 0 0 1 0 1

Total # of neighbors = 35064
Ave neighs/atom = 68.4844
Ave special neighs/atom = 0
Neighbor list builds = 99798
Dangerous builds = 4
Setting up run ...
Memory usage per processor = 3.93962 Mbytes
Step Press Volume Temp PotEng KinEng TotEng Enthalpy E_vdwl E_coul E_tail E_long E_bond E_angle E_dihed E_impro E_mol 
10000000    476.73128    75668.524    461.71823   -308.84307     703.2864    394.44333    920.53909   -308.84307            0   -6.9208373            0            0            0            0            0            0 
10001000    452.90972    77668.158    470.96056   -302.11397    717.36427     415.2503    928.26586   -302.11397            0   -6.7426544            0            0            0            0            0            0 
10002000    482.57597    77240.515    467.00166   -306.53167     711.3341    404.80242    948.41156   -306.53167            0   -6.7799852            0            0            0            0            0            0 
10003000    469.02451    77527.741    453.56752   -300.55703    690.87129    390.31426    920.62272   -300.55703            0   -6.7548666            0            0            0            0            0            0 
10004000    462.95833    75044.014    463.02604   -307.18361    705.27845    398.09484    904.77495   -307.18361            0    -6.978432            0            0            0            0            0            0 
10005000    502.56763    72686.139    442.02255   -320.41872    673.28607    352.86735    885.61556   -320.41872            0   -7.2048062            0            0            0            0            0            0 
10006000    500.59932    79908.341    484.15938   -285.44983    737.46863    452.01881    1035.4078   -285.44983            0   -6.5536281            0            0            0            0            0            0 
10007000    512.75788    76514.239    482.03063   -306.71271    734.22614    427.51343    999.69056   -306.71271            0   -6.8443411            0            0            0            0            0            0 
10008000    489.93318    76356.361    477.77707   -302.93204    727.74713    424.81509    970.39449   -302.93204            0   -6.8584927            0            0            0            0            0            0 
10009000    530.95885    76369.577    446.86733   -289.42602    680.66561    391.23959    982.60666   -289.42602            0   -6.8573058            0            0            0            0            0            0 
10010000    461.02984    79034.022    453.77714   -291.35451    691.19059    399.83608    931.23297   -291.35451            0    -6.626128            0            0            0            0            0            0 
10011000    466.31867    76092.869    461.09859   -310.96481    702.34258    391.37776    908.86858   -310.96481            0   -6.8822421            0            0            0            0            0            0 
10012000    593.00664    76044.962    478.05472   -284.43604    728.17005    443.73401    1101.4008   -284.43604            0   -6.8865778            0            0            0            0            0            0 
10013000    495.00777    78089.561    479.33929   -292.19844     730.1267    437.92826    1001.6709   -292.19844            0   -6.7062682            0            0            0            0            0            0 
10014000    552.17278    76476.352    464.98839   -294.70292     708.2675    413.56459     1029.419   -294.70292            0   -6.8477318            0            0            0            0            0            0 
10015000    507.40118    79772.215    450.31011   -280.95108    685.90963    404.95855    995.26702   -280.95108            0   -6.5648114            0            0            0            0            0            0 
10016000     472.5638    80793.461    460.20921   -283.32797    700.98787     417.6599    974.47699   -283.32797            0   -6.4818308            0            0            0            0            0            0 
10017000    540.62261    76462.631    471.24564   -290.40682     717.7985    427.39167    1030.2556   -290.40682            0   -6.8489605            0            0            0            0            0            0 
10018000     517.4233    72724.541    489.13275   -331.47124    745.04404    413.57279    962.35859   -331.47124            0   -7.2010017            0            0            0            0            0            0 
10019000    454.25467    79182.249    476.93432   -300.90354    726.46347    425.55993    950.12953   -300.90354            0   -6.6137241            0            0            0            0            0            0 
10020000    469.53206    80915.536    465.03341    -281.1834    708.33607    427.15267     981.2334    -281.1834            0   -6.4720519            0            0            0            0            0            0 
10021000    512.72283    75203.249    434.74308    -317.1375    662.19802    345.06052    907.39556    -317.1375            0   -6.9636559            0            0            0            0            0            0 
10022000    534.24693    77592.365    467.51583   -295.34041    712.11728    416.77686    1021.3334   -295.34041            0   -6.7492406            0            0            0            0            0            0 
10023000    497.53534    82982.938    461.69235   -262.70104    703.24698    440.54594    1042.6737   -262.70104            0   -6.3108099            0            0            0            0            0            0 
10024000    557.05293    75629.927     440.3399   -296.92749    670.72306    373.79557    988.21655   -296.92749            0   -6.9243693            0            0            0            0            0            0 
10025000    437.62102    79852.575    486.81959   -295.98088    741.52065    445.53976    955.17916   -295.98088            0   -6.5582049            0            0            0            0            0            0 
10026000    496.91778    75679.586    465.65572   -313.91128    709.28397    395.37269    943.82538   -313.91128            0   -6.9198257            0            0            0            0            0            0 
10027000    419.53632     79335.08    436.34607   -299.13804    664.63968    365.50164    850.91388   -299.13804            0   -6.6009834            0            0            0            0            0            0 
10028000    592.98327    74351.067     462.7875   -294.80971    704.91511     410.1054    1053.0974   -294.80971            0   -7.0434705            0            0            0            0            0            0 
10029000    446.06139    77488.163    431.77949   -300.35925    657.68391    357.32466    861.41211   -300.35925            0   -6.7583167            0            0            0            0            0            0 
10030000    492.78202    79395.259    467.68661   -289.76201    712.37741    422.61541    993.20692   -289.76201            0     -6.59598            0            0            0            0            0            0 
10031000    600.96862    74990.819    479.76568   -299.02097    730.77618    431.75521    1089.0131   -299.02097            0   -6.9833821            0            0            0            0            0            0 
10032000    507.78208    74561.137    420.54675   -305.00603    640.57425    335.56822    887.72928   -305.00603            0   -7.0236261            0            0            0            0            0            0 
10033000    479.77238     78610.51    433.38425   -287.15055    660.12827    372.97771    923.01451   -287.15055            0   -6.6618261            0            0            0            0            0            0 
10034000    465.19592     80145.66    448.69138   -276.56586    683.44399    406.87813    950.61877   -276.56586            0   -6.5342221            0            0            0            0            0            0 
10035000    588.63267    77876.871    466.77665   -272.59043    710.99136    438.40094     1106.943   -272.59043            0   -6.7245838            0            0            0            0            0            0 
10036000    524.39836     72996.04    441.55865   -318.35779    672.57947    354.22168    912.48168   -318.35779            0   -7.1742186            0            0            0            0            0            0 
10037000    564.42392    78275.486    443.10039   -282.58512    674.92782     392.3427    1036.6708   -282.58512            0   -6.6903391            0            0            0            0            0            0 
10038000    596.34761    75445.682    474.51186    -294.7056    722.77359      428.068     1084.228    -294.7056            0   -6.9412792            0            0            0            0            0            0 
10039000    559.65737    79097.743     461.7497   -273.43388    703.33435    429.90047    1075.4985   -273.43388            0     -6.62079            0            0            0            0            0            0 
10040000    427.25337    82217.664    453.96791   -277.34408    691.48116    414.13708    926.43963   -277.34408            0   -6.3695503            0            0            0            0            0            0 
10041000    486.66778    73485.192    475.22565   -324.98492    723.86082     398.8759    920.44075   -324.98492            0   -7.1264636            0            0            0            0            0            0 
10042000    495.69615     76449.57    448.40757   -295.33656    683.01169    387.67513    940.34588   -295.33656            0   -6.8501306            0            0            0            0            0            0 
10043000    508.40421    77744.267    453.94959   -286.83145    691.45327    404.62181    981.06088   -286.83145            0   -6.7360536            0            0            0            0            0            0 
10044000    441.42583    79772.918    456.58912   -303.20085    695.47378    392.27293    905.83047   -303.20085            0   -6.5647535            0            0            0            0            0            0 
10045000    583.41355    74905.937    473.71564   -298.99167     721.5608    422.56912    1059.9054   -298.99167            0   -6.9912956            0            0            0            0            0            0 
10046000     579.4711    79364.067    476.89525    -270.6302    726.40396    455.77376    1126.4788    -270.6302            0   -6.5985725            0            0            0            0            0            0 
10047000    511.90686    81862.406    474.35193   -276.93169    722.52998    445.59829    1056.7533   -276.93169            0   -6.3971922            0            0            0            0            0            0 
10048000    529.30216    76400.905    430.83297   -300.59122    656.24217    355.65095    945.41468   -300.59122            0    -6.854494            0            0            0            0            0            0 
10049000    458.88477    79687.134    441.22866   -293.05818    672.07682    379.01864    912.31393   -293.05818            0   -6.5718205            0            0            0            0            0            0 
10050000    561.67528     77761.11    458.43865   -287.08087    698.29097     411.2101    1048.1869   -287.08087            0   -6.7345945            0            0            0            0            0            0 
10051000    496.49833     74014.19    473.12953   -317.53661    720.66803    403.13143    939.06216   -317.53661            0    -7.075529            0            0            0            0            0            0 
10052000     399.9356    78975.452     464.2405   -308.93654    707.12831    398.19177    858.82798   -308.93654            0   -6.6310421            0            0            0            0            0            0 
10053000    461.21883    78849.933    495.54961   -298.89675    754.81816    455.92141    986.29787   -298.89675            0   -6.6415979            0            0            0            0            0            0 
10054000    437.48704    75244.355    435.42848   -318.80011    663.24202    344.44191    824.52346   -318.80011            0   -6.9598516            0            0            0            0            0            0 
10055000    413.58753    75806.872    415.35954   -311.31215    632.67314    321.36099    778.60908   -311.31215            0   -6.9082067            0            0            0            0            0            0 
10056000    388.04548    81010.616    456.78781   -293.66007    695.77642    402.11635     860.5753   -293.66007            0   -6.4644558            0            0            0            0            0            0 
10057000     605.3736    73277.616    474.45405     -307.069    722.68553    415.61653    1062.5665     -307.069            0    -7.146651            0            0            0            0            0            0 
10058000     479.5044     74795.46    483.63466   -315.88402    736.66938    420.78536    943.83598   -315.88402            0   -7.0016221            0            0            0            0            0            0 
10059000    510.39397     80420.84    465.75207   -276.64833    709.43073    432.78239    1031.4008   -276.64833            0   -6.5118637            0            0            0            0            0            0 
10060000    438.76254    78155.012     439.0918    -302.3211    668.82197    366.50087    866.60711    -302.3211            0   -6.7006521            0            0            0            0            0            0 
10061000    453.53885    77878.856    450.79969   -300.20201    686.65535    386.45334    901.57516   -300.20201            0   -6.7244124            0            0            0            0            0            0 
10062000    528.72695    81931.641    461.90993   -277.24481     703.5784    426.33359    1058.1036   -277.24481            0   -6.3917863            0            0            0            0            0            0 
10063000    484.21609    80169.004     494.7956    -293.9036    753.66965    459.76605    1025.9031    -293.9036            0   -6.5323194            0            0            0            0            0            0 
10064000    498.80457     72111.86     460.0938   -320.21426    700.81209    380.59783    905.17937   -320.21426            0   -7.2621833            0            0            0            0            0            0 
10065000     426.3805      78593.7    453.66102   -303.24945    691.01372    387.76427    876.48521   -303.24945            0    -6.663251            0            0            0            0            0            0 
10066000    424.76212    78138.141    447.92367   -308.65984    682.27461    373.61477    857.65866   -308.65984            0   -6.7020989            0            0            0            0            0            0 
10067000    510.10377    77568.667    434.48377   -287.58815    661.80304    374.21488     951.2746   -287.58815            0   -6.7513026            0            0            0            0            0            0 
10068000    377.97559    79807.721    425.63274   -303.72651    648.32121    344.59469    784.52568   -303.72651            0   -6.5618907            0            0            0            0            0            0 
10069000    485.01302    77174.495    459.04389   -298.40646    699.21287     400.8064    946.69382   -298.40646            0   -6.7857852            0            0            0            0            0            0 
10070000    437.37068    81515.868    478.65202     -288.514    729.07986    440.56586     960.5232     -288.514            0   -6.4243878            0            0            0            0            0            0 
10071000    595.76334    75984.407    459.31239    -290.3835    699.62185    409.23835    1069.4363    -290.3835            0   -6.8920659            0            0            0            0            0            0 
10072000    451.48368     79286.06    437.87239   -287.60349    666.96457    379.36108     901.4143   -287.60349            0   -6.6050646            0            0            0            0            0            0 
10073000    447.93416     78023.24    462.02362   -303.58955    703.75157    400.16203    909.86135   -303.58955            0   -6.7119687            0            0            0            0            0            0 
10074000    573.44967    74698.757    465.53447   -305.98634    709.09928    403.11293    1027.8317   -305.98634            0   -7.0106863            0            0            0            0            0            0 
10075000    459.51453    77150.627    450.74129   -294.95423    686.56639    391.61217     908.6408   -294.95423            0   -6.7878845            0            0            0            0            0            0 
10076000    430.22978    80116.322    423.80669   -291.05384    645.53978    354.48595    857.17261   -291.05384            0   -6.5366149            0            0            0            0            0            0 
10077000    527.92819    72937.119    450.12813   -318.60831    685.63244    367.02412    928.58823   -318.60831            0   -7.1800142            0            0            0            0            0            0 
10078000    439.35271    79912.016    462.71056   -290.58145    704.79791    414.21646     926.2534   -290.58145            0   -6.5533266            0            0            0            0            0            0 
10079000    531.25124    75941.383    476.31877   -307.75998    725.52587    417.76589    1006.1411   -307.75998            0   -6.8959706            0            0            0            0            0            0 
10080000    466.94844    75272.416    454.42618    -314.0999     692.1792     378.0793    890.68175    -314.0999            0    -6.957257            0            0            0            0            0            0 
10081000    466.37982    79162.189    470.02689   -296.99523    715.94211    418.94687    957.38206   -296.99523            0      -6.6154            0            0            0            0            0            0 
10082000    528.33613    75045.092    476.38924   -305.24722    725.63321    420.38599    998.62648   -305.24722            0   -6.9783317            0            0            0            0            0            0 
10083000    413.89548     79532.51    437.01679   -291.53333    665.66133      374.128    854.20539   -291.53333            0   -6.5845973            0            0            0            0            0            0 
10084000    487.96514    78192.128    454.25237   -294.98556    691.91446     396.9289    953.38092   -294.98556            0   -6.6974715            0            0            0            0            0            0 
10085000    475.21728    78549.208    454.37658   -291.71911    692.10365    400.38454    944.77427   -291.71911            0   -6.6670251            0            0            0            0            0            0 
10086000    554.97249    76658.051    455.61956   -289.66514    693.99695    404.33181    1024.7794   -289.66514            0   -6.8315009            0            0            0            0            0            0 
10087000    501.76771    74976.955     450.0423   -306.36314     685.5017    379.13856    927.80246   -306.36314            0   -6.9846734            0            0            0            0            0            0 
10088000    444.54066    78731.838     466.5061   -307.38539    710.57926    403.19386    913.62571   -307.38539            0     -6.65156            0            0            0            0            0            0 
10089000    494.05708    83098.672    472.37946   -275.95089    719.52553    443.57464    1042.3268   -275.95089            0   -6.3020206            0            0            0            0            0            0 
10090000    527.09479    75092.623    453.26424   -310.04661    690.40935    380.36274    957.61001   -310.04661            0   -6.9739146            0            0            0            0            0            0 
10091000     489.6371    76605.613    455.45795   -312.67033    693.75079    381.08045    928.11002   -312.67033            0   -6.8361772            0            0            0            0            0            0 
10092000     548.6941    76200.749    471.32989   -303.35984    717.92683    414.56699    1024.3361   -303.35984            0   -6.8724986            0            0            0            0            0            0 
10093000    518.49507    74197.894    486.84854   -306.79374    741.56474      434.771    995.83462   -306.79374            0   -7.0580109            0            0            0            0            0            0 
10094000     506.3635    78311.222    463.01751    -290.2026    705.26546    415.06285    993.37496    -290.2026            0   -6.6872861            0            0            0            0            0            0 
10095000      482.448    79833.067    449.16846   -280.95878    684.17068     403.2119    964.91809   -280.95878            0   -6.5598074            0            0            0            0            0            0 
10096000    520.02988     74390.16    438.63764   -306.09212    668.13019    362.03807    926.22066   -306.09212            0   -7.0397691            0            0            0            0            0            0 
10097000    561.56177    74793.186    473.41825   -297.36186    721.10781    423.74594    1036.2874   -297.36186            0    -7.001835            0            0            0            0            0            0 
10098000    436.79849    84638.962    452.41463   -272.71302    689.11522     416.4022    955.57422   -272.71302            0   -6.1873342            0            0            0            0            0            0 
10099000    583.66857    78965.724    479.57213   -283.73455    730.48136    446.74681    1118.9194   -283.73455            0    -6.631859            0            0            0            0            0            0 
10100000    456.04627    76288.336    486.17211    -314.9106     740.5344     425.6238    933.01501    -314.9106            0   -6.8646083            0            0            0            0            0            0 
10101000    532.73737    74284.132     453.7297   -312.41366    691.11833    378.70467    955.84989   -312.41366            0   -7.0498171            0            0            0            0            0            0 
10102000    462.57246    82274.732    433.72624   -284.67831    660.64918    375.97087    931.00812   -284.67831            0   -6.3651322            0            0            0            0            0            0 
10103000    463.28199    80005.662    459.12621   -291.69213    699.33826    407.64614     948.2038   -291.69213            0    -6.545656            0            0            0            0            0            0 
10104000    507.18388    75141.875    467.76314   -296.46635    712.49397    416.02762    971.83379   -296.46635            0   -6.9693436            0            0            0            0            0            0 
10105000     566.3409     76519.74    471.12603   -290.36357    717.61632    427.25275    1059.2676   -290.36357            0    -6.843849            0            0            0            0            0            0 
10106000    493.37294    78320.389    457.80802   -286.42989     697.3304    410.90051     974.4422   -286.42989            0   -6.6865034            0            0            0            0            0            0 
10107000     493.9512    71699.343    447.99497   -321.49246    682.38322    360.89076    877.39644   -321.49246            0   -7.3039658            0            0            0            0            0            0 
10108000    565.29707    75817.448    486.68836   -299.57597    741.32075    441.74478    1066.8049   -299.57597            0   -6.9072431            0            0            0            0            0            0 
10109000    486.15025    76139.014    463.64217   -301.09896    706.21694    405.11799    944.94381   -301.09896            0    -6.878071            0            0            0            0            0            0 
10110000    494.00219    75296.836    454.66004   -307.12361    692.53541     385.4118      927.889   -307.12361            0   -6.9550007            0            0            0            0            0            0 
10111000    444.71276    80517.618    465.80248   -289.43156    709.50752    420.07596    942.28742   -289.43156            0   -6.5040367            0            0            0            0            0            0 
10112000     556.6731    78112.539    468.07238   -284.27196      712.965    428.69305    1062.8502   -284.27196            0   -6.7042956            0            0            0            0            0            0 
10113000    573.08242    78111.061    491.32323   -288.18152    748.38056    460.19904    1113.0372   -288.18152            0   -6.7044224            0            0            0            0            0            0 
10114000    452.64993    77635.455    463.12015   -297.62189    705.42181    407.79992    920.30533   -297.62189            0   -6.7454947            0            0            0            0            0            0 
10115000    496.10213    78545.005    451.68933   -288.10786    688.01045    399.90259    968.18674   -288.10786            0   -6.6673819            0            0            0            0            0            0 
10116000    512.47313    78095.099    447.79471   -293.23941    682.07818    388.83878    972.51334   -293.23941            0   -6.7057927            0            0            0            0            0            0 
10117000    453.42251    78881.146    433.48233   -286.89823    660.27766    373.37943    894.99696   -286.89823            0   -6.6389698            0            0            0            0            0            0 
10118000    634.37602    70975.479    452.63843   -309.50119    689.45612    379.95493    1036.6004   -309.50119            0   -7.3784574            0            0            0            0            0            0 
10119000    480.43619    78635.644    444.85258   -290.41362    677.59675    387.18312    938.15705   -290.41362            0   -6.6596968            0            0            0            0            0            0 
10120000    488.50228    77792.239    471.58786   -296.64185    718.31977    421.67792    975.89353   -296.64185            0   -6.7318996            0            0            0            0            0            0 
10121000    713.43857     73827.55    473.83303   -291.66439     721.7396    430.07521    1198.2339   -291.66439            0   -7.0934163            0            0            0            0            0            0 
10122000    598.16426     79661.83    471.63576   -267.97299    718.39273    450.41974    1145.3587   -267.97299            0   -6.5739081            0            0            0            0            0            0 
10123000    448.78739    78235.576    451.14714   -301.96689    687.18459     385.2177    897.27766   -301.96689            0    -6.693752            0            0            0            0            0            0 
10124000    460.76496    79697.272    450.00072   -283.52237    685.43836    401.91599    937.46447   -283.52237            0   -6.5709846            0            0            0            0            0            0 
10125000    511.20783    74005.551    468.05005   -312.77937      712.931    400.15164    951.89571   -312.77937            0   -7.0763549            0            0            0            0            0            0 
10126000    583.01056    73400.457    481.61299   -304.29791    733.58999    429.29208    1053.3876   -304.29791            0   -7.1346906            0            0            0            0            0            0 
10127000    414.68403    83062.257    465.22992   -284.98606     708.6354    423.64933    925.98837   -284.98606            0   -6.3047835            0            0            0            0            0            0 
10128000    506.11282    75919.289    470.14986   -307.90046    716.12941    408.22894    968.59957   -307.90046            0   -6.8979774            0            0            0            0            0            0 
10129000    498.53662    76319.797    474.53277   -311.84678    722.80544    410.95865    965.85282   -311.84678            0   -6.8617786            0            0            0            0            0            0 
10130000    422.64971    80878.169     440.1099   -287.79553    670.37274     382.5772    881.10316   -287.79553            0    -6.475042            0            0            0            0            0            0 
10131000    598.88961    73342.389    458.85692   -301.77487    698.92808    397.15321    1037.7396   -301.77487            0   -7.1403393            0            0            0            0            0            0 
10132000    489.95442    76036.382    493.47261   -308.59629    751.65448    443.05819    986.37483   -308.59629            0   -6.8873549            0            0            0            0            0            0 
10133000    466.04141    81017.598     472.3597   -287.06386    719.49543    432.43158    983.08679   -287.06386            0   -6.4638987            0            0            0            0            0            0 
10134000    515.83082    74859.999    491.13736   -309.37116    748.09744    438.72628    1001.8878   -309.37116            0   -6.9955858            0            0            0            0            0            0 
10135000    593.61514    76234.473    453.01609   -277.91535    690.03136    412.11602    1072.0983   -277.91535            0   -6.8694585            0            0            0            0            0            0 
10136000    458.21773    79036.173    457.48891    -299.7595    696.84434    397.08484    925.25478    -299.7595            0   -6.6259477            0            0            0            0            0            0 
10137000    530.10591    75918.386    446.33991   -298.32572    679.86224    381.53653    968.46543   -298.32572            0   -6.8980596            0            0            0            0            0            0 
10138000    434.38486    78450.764     468.3737   -300.61855    713.42398    412.80544    909.79555   -300.61855            0   -6.6753912            0            0            0            0            0            0 
10139000    491.11075    78803.194    468.16768   -284.62415    713.11017    428.48602     992.9018   -284.62415            0    -6.645537            0            0            0            0            0            0 
10140000    468.01079    78825.256    448.41442   -296.21296    683.02212    386.80916    924.82758   -296.21296            0   -6.6436771            0            0            0            0            0            0 
10141000    549.21928    76164.809    460.52184   -296.00197    701.46408    405.46211     1015.527   -296.00197            0   -6.8757416            0            0            0            0            0            0 
10142000    510.27171      78165.6    463.49215   -288.63887    705.98844    417.34957    999.04151   -288.63887            0   -6.6997444            0            0            0            0            0            0 
10143000    485.68444    79150.674    463.42509   -285.32103    705.88629    420.56526    981.20605   -285.32103            0   -6.6163624            0            0            0            0            0            0 
10144000    543.07833    74106.604    461.29143   -308.05693    702.63632    394.57938    981.52151   -308.05693            0   -7.0667055            0            0            0            0            0            0 
10145000    482.44909    77601.556    446.73635   -301.18333     680.4661    379.28277    925.28927   -301.18333            0   -6.7484413            0            0            0            0            0            0 
10146000    483.45073    78505.403    459.83225   -296.45927     700.4137    403.95443    957.46721   -296.45927            0   -6.6707453            0            0            0            0            0            0 
10147000    482.86607     76113.14    472.55731   -308.86554    719.79643     410.9309    946.92772   -308.86554            0   -6.8804092            0            0            0            0            0            0 
10148000    488.04106    72165.132    442.16351   -319.73639    673.50077    353.76438    867.40536   -319.73639            0   -7.2568224            0            0            0            0            0            0 
10149000    405.98124    79259.441    428.42549   -299.29097    652.57511    353.28413    822.56501   -299.29097            0   -6.6072829            0            0            0            0            0            0 
10150000    499.30424    79319.539     458.9592   -294.80127    699.08387     404.2826    981.87481   -294.80127            0   -6.6022767            0            0            0            0            0            0 
10151000    628.73596     75631.98    474.57369   -290.00806    722.86777    432.85971    1126.3648   -290.00806            0   -6.9241813            0            0            0            0            0            0 
10152000    543.57325    76635.075    455.63252   -292.49961    694.01669    401.51708    1009.0384   -292.49961            0    -6.833549            0            0            0            0            0            0 
10153000    466.59469    78162.535    440.06234   -287.41104    670.30028    382.88925    914.77005   -287.41104            0   -6.7000072            0            0            0            0            0            0 
10154000    452.28775    82096.945    464.86004   -281.65994      708.072    426.41206    967.93607   -281.65994            0   -6.3789164            0            0            0            0            0            0 
10155000    550.87212    75137.974    439.31668   -298.57969     669.1645    370.58481    974.23614   -298.57969            0   -6.9697054            0            0            0            0            0            0 
10156000    412.67183    77006.539    433.91214   -309.84506    660.93235    351.08728    814.54308   -309.84506            0   -6.8005854            0            0            0            0            0            0 
10157000    432.37803      79112.7    473.96096    -296.9222    721.93447    425.01227    923.88035    -296.9222            0   -6.6195383            0            0            0            0            0            0 
10158000    488.90076    76576.498    477.26747   -302.80761    726.97092    424.16331    970.16263   -302.80761            0   -6.8387763            0            0            0            0            0            0 
10159000    493.55037    77196.661    483.04867   -300.56922    735.77681    435.20759    990.86343   -300.56922            0   -6.7838367            0            0            0            0            0            0 
10160000    433.96363     79795.22    478.38513   -297.96002    728.67332     430.7133    935.73041   -297.96002            0   -6.5629188            0            0            0            0            0            0 
10161000    429.32479    75112.776    437.04901   -319.41315     665.7104    346.29725    816.59799   -319.41315            0   -6.9720436            0            0            0            0            0            0 
10162000    519.71018    76919.464    467.07535   -302.11957    711.44634    409.32677    992.33323   -302.11957            0   -6.8082838            0            0            0            0            0            0 
10163000    501.86247    80883.263    483.28196   -284.86963    736.13215    451.26253    1043.2592   -284.86963            0   -6.4746343            0            0            0            0            0            0 
10164000    469.45706    76742.972    455.94328   -302.96043    694.49004    391.52962    916.95419   -302.96043            0   -6.8239414            0            0            0            0            0            0 
10165000     419.2554    76106.133    422.31642   -313.60729    643.26981    329.66251    795.00661   -313.60729            0   -6.8810426            0            0            0            0            0            0 
10166000    533.38814    76568.896     441.7314    -292.1412    672.84259    380.70139    976.32463    -292.1412            0   -6.8394553            0            0            0            0            0            0 
10167000    520.92585    79206.577    477.98556   -278.64682     728.0647    449.41788    1051.1637   -278.64682            0   -6.6116927            0            0            0            0            0            0 
10168000     463.3733    76171.762     434.1667   -310.78608    661.32008      350.534    865.28938   -310.78608            0    -6.875114            0            0            0            0            0            0 
10169000    499.08576     78174.12    435.81331   -292.13339    663.82818     371.6948    940.69716   -292.13339            0   -6.6990143            0            0            0            0            0            0 
10170000    521.30948    81762.593    480.00322   -276.63031    731.13799    454.50768    1076.1294   -276.63031            0   -6.4050017            0            0            0            0            0            0 
10171000    551.48708    77071.952    463.64545   -287.79694    706.22194      418.425     1038.305   -287.79694            0   -6.7948136            0            0            0            0            0            0 
10172000    490.97419     75318.68    445.41879   -308.44949     678.4592    370.00971     909.3182   -308.44949            0   -6.9529836            0            0            0            0            0            0 
10173000    407.24939    80441.225    430.84736   -292.42296    656.26408    363.84113    841.60687   -292.42296            0   -6.5102135            0            0            0            0            0            0 
10174000    502.38895    76598.402    444.83137   -295.18688    677.56445    382.37758    943.60086   -295.18688            0   -6.8368207            0            0            0            0            0            0 
10175000     446.2739    78524.667    418.23995   -290.54028    637.06055    346.52027    857.59391   -290.54028            0   -6.6691088            0            0            0            0            0            0 
10176000    436.48693    75307.436    449.09202   -315.79525    684.05425      368.259    847.64461   -315.79525            0   -6.9540217            0            0            0            0            0            0 
10177000    423.91616    76721.108    460.92447   -315.84413    702.07736    386.23323    860.55246   -315.84413            0   -6.8258861            0            0            0            0            0            0 
10178000    498.76463    81405.102    493.93644   -279.12795    752.36098    473.23303    1065.3714   -279.12795            0   -6.4331293            0            0            0            0            0            0 
10179000    506.20001    78917.381    453.96781   -283.07588    691.48102    408.40514    991.00544   -283.07588            0   -6.6359215            0            0            0            0            0            0 
10180000    436.61163    76090.356    429.54674   -304.22631    654.28298    350.05668    834.56451   -304.22631            0   -6.8824694            0            0            0            0            0            0 
10181000    482.07606    78807.795    465.69651   -290.35281     709.3461    418.99329    973.05818   -290.35281            0    -6.645149            0            0            0            0            0            0 
10182000    575.42086    76444.295     493.8974   -298.40438    752.30153    453.89715    1095.4118   -298.40438            0   -6.8506034            0            0            0            0            0            0 
10183000    402.93315    79772.932     457.1213   -299.13546     696.2844    397.14894    865.92394   -299.13546            0   -6.5647524            0            0            0            0            0            0 
10184000    512.17024    72072.953    443.98678   -323.99849    676.27798    352.27949     890.6268   -323.99849            0   -7.2661037            0            0            0            0            0            0 
10185000     472.6113    77721.035    461.94449   -301.16576    703.63104    402.46528    938.16148   -301.16576            0   -6.7380671            0            0            0            0            0            0 
10186000    580.76654    76661.339    489.15457   -297.85401    745.07727    447.22326    1096.5359   -297.85401            0   -6.8312079            0            0            0            0            0            0 
10187000    514.23728    80524.028    451.79518    -275.8118    688.17167    412.35987    1016.2597    -275.8118            0    -6.503519            0            0            0            0            0            0 
10188000    508.37978    76396.153    443.04615   -290.50743     674.8452    384.33777    950.75395   -290.50743            0   -6.8549204            0            0            0            0            0            0 
10189000    440.62939    84838.943    448.52882   -269.00027    683.19638    414.19612    959.38199   -269.00027            0   -6.1727495            0            0            0            0            0            0 
10190000    502.48506    76591.314    458.28236   -300.54532     698.0529    397.50758    958.78628   -300.54532            0   -6.8374535            0            0            0            0            0            0 
10191000    507.23422    79862.812    467.85534   -278.83894    712.63442    433.79548    1024.5799   -278.83894            0   -6.5573642            0            0            0            0            0            0 
10192000    604.31226    75987.181    480.23849   -292.60465    731.49636    438.89171    1108.5876   -292.60465            0   -6.8918143            0            0            0            0            0            0 
10193000    453.08133    75266.184     454.4716   -311.81347    692.24839    380.43492    877.77328   -311.81347            0   -6.9578331            0            0            0            0            0            0 
10194000    532.82596    77049.689    439.96164   -296.54258    670.14691    373.60433     972.3359   -296.54258            0   -6.7967769            0            0            0            0            0            0 
10195000    477.13759    79037.394    489.86333   -301.40906    746.15685    444.74779    994.73442   -301.40906            0   -6.6258453            0            0            0            0            0            0 
10196000    628.22439    72949.647    466.13085   -299.51497    710.00768    410.49271     1078.858   -299.51497            0   -7.1787811            0            0            0            0            0            0 
10197000    512.94068    73836.565      467.517   -319.05862    712.11906    393.06044    945.41064   -319.05862            0   -7.0925502            0            0            0            0            0            0 
10198000      464.579    78817.723    474.65397   -288.64561    722.99005    434.34444    968.36668   -288.64561            0   -6.6443121            0            0            0            0            0            0 
10199000    486.19059    78515.336    451.84883     -284.789     688.2534    403.46441    960.18455     -284.789            0   -6.6699013            0            0            0            0            0            0 
10200000    466.89487    74672.436    470.34572   -312.80078    716.42774    403.62697    912.08523   -312.80078            0   -7.0131574            0            0            0            0            0            0 
10201000    535.60084     78582.18    476.27679   -291.02241    725.46192    434.43951    1048.2598   -291.02241            0   -6.6642277            0            0            0            0            0            0 
10202000    524.72403    80042.478    471.52242   -276.64684    718.22009    441.57325    1054.1032   -276.64684            0   -6.5426453            0            0            0            0            0            0 
10203000    470.97706    74659.936    431.22974   -307.09546    656.84653    349.75107    862.56906   -307.09546            0   -7.0143315            0            0            0            0            0            0 
10204000    462.47718    78529.188    454.24749   -293.34098    691.90702    398.56604    928.22619   -293.34098            0   -6.6687248            0            0            0            0            0            0 
10205000    485.73554    80249.985    464.72932   -282.04267    707.87288    425.83021    994.31746   -282.04267            0   -6.5257276            0            0            0            0            0            0 
10206000    480.28196    74073.882    469.32888   -315.76615    714.87891    399.11276    917.95732   -315.76615            0   -7.0698272            0            0            0            0            0            0 
10207000    458.82693    78352.075    469.21467   -294.23129    714.70494    420.47366    944.76815   -294.23129            0   -6.6837993            0            0            0            0            0            0 
10208000    499.65703    76341.467    445.26279   -296.86202    678.22158    381.35956     937.6587   -296.86202            0   -6.8598308            0            0            0            0            0            0 
10209000    353.45693    77723.473      436.034   -322.65019    664.16434    341.51415    742.16362   -322.65019            0   -6.7378557            0            0            0            0            0            0 
10210000    516.96769    73208.925    471.71735    -316.0573      718.517    402.45971    954.41426    -316.0573            0   -7.1533566            0            0            0            0            0            0 
10211000    473.29488    80615.674    471.54626   -281.45747     718.2564    436.79893    993.25026   -281.45747            0   -6.4961257            0            0            0            0            0            0 
10212000    546.90646     79483.98    473.30713   -279.02272    720.93855    441.91583    1075.8856   -279.02272            0   -6.5886176            0            0            0            0            0            0 
10213000    469.80646    78034.303    440.05923   -297.95239    670.29556    372.34317    907.00653   -297.95239            0   -6.7110172            0            0            0            0            0            0 
10214000    460.86415    76544.192    449.37513   -306.22723    684.48547    378.25824    892.72942   -306.22723            0   -6.8416628            0            0            0            0            0            0 
10215000     465.3635    79650.052    444.39248   -287.47619    676.89593    389.41975    929.99264   -287.47619            0   -6.5748802            0            0            0            0            0            0 
10216000    564.50071    74480.661    437.34384   -288.15959    666.15948    377.99989    991.17414   -288.15959            0    -7.031215            0            0            0            0            0            0 
10217000    505.66854    77072.101    456.04698   -294.50627    694.64799    400.14173    968.52203   -294.50627            0   -6.7948005            0            0            0            0            0            0 
10218000     506.7465     78125.24    451.60342   -283.47433    687.87959    404.40526    981.78031   -283.47433            0   -6.7032056            0            0            0            0            0            0 
10219000     509.1624    82198.219    479.50617   -275.20469    730.38089     455.1762    1065.5482   -275.20469            0   -6.3710571            0            0            0            0            0            0 
10220000    512.27014    75854.823    457.67803   -301.80105    697.13239    395.33135    962.03776   -301.80105            0   -6.9038398            0            0            0            0            0            0 
10221000    498.45522    73504.931    459.15659   -316.44244    699.38453    382.94209    917.28311   -316.44244            0   -7.1245499            0            0            0            0            0            0 
10222000    438.97664    80110.717    462.82691   -297.28845    704.97515     407.6867    920.55743   -297.28845            0   -6.5370722            0            0            0            0            0            0 
10223000    485.53625    77467.913    484.74164    -295.3561    738.35553    442.99942    991.55345    -295.3561            0   -6.7600833            0            0            0            0            0            0 
10224000    509.90196     73765.22    464.84546   -317.22291    708.04979    390.82688    939.37435   -317.22291            0   -7.0994101            0            0            0            0            0            0 
10225000    539.75171    76991.754    452.64083   -287.84775    689.45977    401.61202    1007.6699   -287.84775            0   -6.8018914            0            0            0            0            0            0 
10226000    415.08359    82786.156    452.86671   -288.81738    689.80382    400.98645    902.13811   -288.81738            0   -6.3258106            0            0            0            0            0            0 
10227000    559.26748    77100.299    483.27157   -297.92569    736.11633    438.19064    1067.0471   -297.92569            0   -6.7923154            0            0            0            0            0            0 
10228000    451.33091    75617.008    462.60348    -318.5139    704.63482    386.12093    883.84708    -318.5139            0   -6.9255524            0            0            0            0            0            0 
10229000    515.66471     75287.42    479.18055   -310.09225    729.88491    419.79267    985.98725   -310.09225            0   -6.9558706            0            0            0            0            0            0 
10230000    540.33093    75712.637    500.27959   -307.09586    762.02284    454.92697    1051.5556   -307.09586            0    -6.916805            0            0            0            0            0            0 
10231000    486.57527    79067.968    475.26105   -298.77238    723.91475    425.14236    986.22457   -298.77238            0   -6.6232832            0            0            0            0            0            0 
10232000    567.51516    70986.523    484.39526    -327.9633    737.82792    409.86463    997.39356    -327.9633            0   -7.3773094            0            0            0            0            0            0 
10233000     440.2317    77426.035    437.28218   -291.49909    666.06556    374.56647    871.66699   -291.49909            0   -6.7637397            0            0            0            0            0            0 
10234000    436.37683    77287.657    456.04453   -309.85596    694.64426    384.78831    876.65534   -309.85596            0   -6.7758497            0            0            0            0            0            0 
10235000    414.55526    78386.447    448.27952   -305.28782    682.81664    377.52882    851.44256   -305.28782            0   -6.6808685            0            0            0            0            0            0 
10236000    489.00157    76257.105    445.18462   -303.22928    678.10251    374.87323    918.70736   -303.22928            0   -6.8674197            0            0            0            0            0            0 
10237000    388.69164    79432.371    459.49118   -305.03198    699.89418     394.8622    845.13801   -305.03198            0   -6.5928983            0            0            0            0            0            0 
10238000    632.26838    71453.866    464.98241   -311.39437    708.25839    396.86403    1055.7391   -311.39437            0   -7.3290582            0            0            0            0            0            0 
10239000    459.10144    80735.776    422.74639   -287.39907    643.92474    356.52567    897.09396   -287.39907            0    -6.486462            0            0            0            0            0            0 
10240000    463.65147    81024.367    460.37003   -281.58163    701.23284    419.65121    967.52834   -281.58163            0   -6.4633587            0            0            0            0            0            0 
10241000    530.11182    73256.703     459.6094   -315.09323    700.07424    384.98101    951.33864   -315.09323            0   -7.1486911            0            0            0            0            0            0 
10242000    463.88448    74413.046    448.83037   -313.76096     683.6557    369.89474    873.31978   -313.76096            0   -7.0376039            0            0            0            0            0            0 
10243000    463.51144      79856.9    452.79382   -288.18685    689.69281    401.50595    941.32574   -288.18685            0   -6.5578497            0            0            0            0            0            0 
10244000    493.61511    78350.398    466.25275   -294.08899    710.19337    416.10437    980.13871   -294.08899            0   -6.6839424            0            0            0            0            0            0 
10245000    569.63512    76798.905    482.83123   -291.86006     735.4456    443.58555    1081.5958   -291.86006            0   -6.8189715            0            0            0            0            0            0 
10246000    522.44892    77888.435    460.47642   -289.68437     701.3949    411.71053    1005.1722   -289.68437            0   -6.7235854            0            0            0            0            0            0 
10247000    458.04656    77169.106    440.57879   -302.30919    671.08694    368.77775    884.27813   -302.30919            0    -6.786259            0            0            0            0            0            0 
10248000    504.37513    79452.252    470.93084    -287.4044      717.319     429.9146     1014.349    -287.4044            0   -6.5912486            0            0            0            0            0            0 
10249000    651.56059    76259.513     469.6034   -280.92651    715.29706    434.37055    1159.0146   -280.92651            0   -6.8672028            0            0            0            0            0            0 
10250000    512.96742    74919.736    460.71357   -311.75227    701.75612    390.00386    950.48617   -311.75227            0   -6.9900078            0            0            0            0            0            0 
10251000     480.6003    80644.371     449.2539    -283.8617    684.30082    400.43912    965.68055    -283.8617            0    -6.493814            0            0            0            0            0            0 
10252000    488.57124     77005.43    450.39294   -294.01741    686.03579    392.01838    940.70597   -294.01741            0   -6.8006834            0            0            0            0            0            0 
10253000    432.57384    76068.113    456.76194   -323.49654    695.73702    372.24048    852.12725   -323.49654            0   -6.8844819            0            0            0            0            0            0 
10254000    438.52681    77286.812    454.53363   -311.69308    692.34287     380.6498     874.9348   -311.69308            0   -6.7759237            0            0            0            0            0            0 
10255000     605.2308    76542.204    468.70454   -287.05739    713.92792    426.87053    1102.4833   -287.05739            0   -6.8418404            0            0            0            0            0            0 
10256000    524.71488    80137.805    473.45194    -286.8397    721.15912    434.31942    1047.5682    -286.8397            0   -6.5348626            0            0            0            0            0            0 
10257000     651.8945    73692.698    527.72954   -302.04607    803.83444    501.78837    1202.4005   -302.04607            0   -7.1063967            0            0            0            0            0            0 
10258000    569.46348    76793.833    460.25074   -284.73643    701.05113     416.3147    1054.0906   -284.73643            0   -6.8194219            0            0            0            0            0            0 
10259000    447.27708    83065.802    453.78237   -282.11875    691.19856     409.0798    950.92446   -282.11875            0   -6.3045144            0            0            0            0            0            0 
10260000    568.14746    73840.637    452.69722   -312.03063    689.54567    377.51503    989.34733   -312.03063            0   -7.0921591            0            0            0            0            0            0 
10261000     475.8415    76314.455    456.14911   -304.49261    694.80356    390.31094    919.90734   -304.49261            0   -6.8622588            0            0            0            0            0            0 
10262000    548.57818    78927.054    467.00201   -284.40015    711.33462    426.93447    1058.3864   -284.40015            0   -6.6351082            0            0            0            0            0            0 
10263000    575.08194     78166.58    473.32658   -284.46892    720.96818    436.49925    1092.0808   -284.46892            0   -6.6996605            0            0            0            0            0            0 
10264000    514.64136    75102.069      468.493   -307.64598     713.6057    405.95972    969.63952   -307.64598            0   -6.9730375            0            0            0            0            0            0 
10265000     456.2894        79059    455.05232   -294.99583    693.13294     398.1371    924.23623   -294.99583            0   -6.6240345            0            0            0            0            0            0 
10266000    540.12378     78037.31    454.32878   -288.24763    692.03084    403.78321    1018.4949   -288.24763            0   -6.7107586            0            0            0            0            0            0 
10267000    509.71532    78873.209    474.93413    -290.6698    723.41678    432.74698    1019.0648    -290.6698            0   -6.6396379            0            0            0            0            0            0 
10268000    537.04194    72333.596    439.18582   -313.70564    668.96517    355.25953    921.79115   -313.70564            0   -7.2399213            0            0            0            0            0            0 
10269000    553.45279    79331.266    473.46636   -276.07798    721.18109    445.10311    1085.4287   -276.07798            0   -6.6013007            0            0            0            0            0            0 
10270000    524.66902    77098.739    477.78527   -297.13031    727.75963    430.62932    1020.5703   -297.13031            0   -6.7924528            0            0            0            0            0            0 
10271000    535.93463    78315.011    465.77949   -288.17829    709.47249    421.29421    1033.4088   -288.17829            0   -6.6869625            0            0            0            0            0            0 
10272000    523.94628    71800.565    475.71358   -326.89036    724.60405    397.71368    946.35753   -326.89036            0   -7.2936688            0            0            0            0            0            0 
10273000    477.74453    79606.503    469.04894   -292.84698    714.45251    421.60553    976.25699   -292.84698            0   -6.5784769            0            0            0            0            0            0 
10274000    546.07583    76524.437    455.33006   -292.57565    693.55599    400.98034    1010.4176   -292.57565            0   -6.8434289            0            0            0            0            0            0 
10275000    487.56056        76959    459.38927   -305.64773    699.73895    394.09122    941.31362   -305.64773            0   -6.8047862            0            0            0            0            0            0 
10276000       487.45     79018.69    471.59145   -297.84103    718.32523     420.4842    982.22477   -297.84103            0   -6.6274136            0            0            0            0            0            0 
10277000    473.72901    79174.891    486.55919   -292.68395    741.12401    448.44005    995.44764   -292.68395            0   -6.6143387            0            0            0            0            0            0 
10278000    520.65883    75075.897    487.68831   -306.11517    742.84387     436.7287    1006.8006   -306.11517            0   -6.9754683            0            0            0            0            0            0 
10279000    488.19512    82841.462    467.69519   -270.87627    712.39048    441.51421    1031.3309   -270.87627            0   -6.3215874            0            0            0            0            0            0 
10280000    527.32372    76884.508    466.73287   -294.70776    710.92467    416.21691    1007.4953   -294.70776            0   -6.8113793            0            0            0            0            0            0 
10281000    575.38607    75867.691    443.63943   -288.43806    675.74888    387.31083    1023.9481   -288.43806            0   -6.9026688            0            0            0            0            0            0 
10282000    477.15328     80329.07    451.34427   -290.14861    687.48486    397.33625    956.32947   -290.14861            0    -6.519303            0            0            0            0            0            0 
10283000    433.23784    77515.105     462.7492   -308.40493    704.85678    396.45185    886.21783   -308.40493            0   -6.7559677            0            0            0            0            0            0 
10284000      552.389    75841.592     503.0205   -300.97009    766.19778    465.22769    1076.2096   -300.97009            0   -6.9050442            0            0            0            0            0            0 
10285000    475.25231    79161.832    473.51321   -290.08577    721.25245    431.16668    979.84267   -290.08577            0   -6.6154298            0            0            0            0            0            0 
10286000    517.71202    75499.207    448.62272   -308.48245    683.33941    374.85696    944.89853   -308.48245            0   -6.9363583            0            0            0            0            0            0 
10287000     495.5695    77746.419    446.70837   -294.45749    680.42348      385.966    947.86835   -294.45749            0   -6.7358671            0            0            0            0            0            0 
10288000      487.497    77312.039    483.98109   -312.78076    737.19706    424.41629    974.07734   -312.78076            0   -6.7737128            0            0            0            0            0            0 
10289000    534.54796    74111.417    469.78686   -303.06946     715.5765    412.50704    990.26732   -303.06946            0   -7.0662465            0            0            0            0            0            0 
10290000    523.33738    75702.161    455.68575   -291.11438    694.09777    402.98338    980.76793   -291.11438            0   -6.9177622            0            0            0            0            0            0 
10291000     488.6424    78279.489    456.52761   -303.06698    695.38009    392.31311       950.16   -303.06698            0    -6.689997            0            0            0            0            0            0 
10292000    408.57787    81543.868    456.94412   -299.61218    696.01452    396.40234     882.2969   -299.61218            0   -6.4221818            0            0            0            0            0            0 
10293000    448.04672    75879.631    443.35568   -314.94783    675.31669    360.36886    856.18927   -314.94783            0   -6.9015826            0            0            0            0            0            0 
10294000    451.88055    78053.304    453.70873   -305.65829    691.08638    385.42809    899.81609   -305.65829            0   -6.7093834            0            0            0            0            0            0 
10295000    492.77194    78036.131    502.76989   -300.78954    765.81604     465.0265    1025.8389   -300.78954            0   -6.7108599            0            0            0            0            0            0 
10296000    538.87787     74421.81    464.56549   -311.86807    707.62333    395.75526    980.63486   -311.86807            0   -7.0367751            0            0            0            0            0            0 
10297000    469.05705    75204.432     452.1595   -311.11896    688.72661    377.60765    892.05981   -311.11896            0   -6.9635463            0            0            0            0            0            0 
10298000    501.98155     80089.82     427.5553   -273.66929    651.24965    377.58035     963.9088   -273.66929            0   -6.5387779            0            0            0            0            0            0 
10299000    580.39888     77016.49    470.70778   -293.33303    716.97924    423.64621     1075.554   -293.33303            0   -6.7997067            0            0            0            0            0            0 
10300000    641.85129    70865.457    487.07895   -319.87125     741.9157    422.04445    1085.3978   -319.87125            0   -7.3899128            0            0            0            0            0            0 
10301000    382.24201     81273.56      459.048    -293.9557    699.21914    405.26344    858.33165    -293.9557            0   -6.4435413            0            0            0            0            0            0 
10302000    442.13249      78748.3    472.48725    -299.4575    719.68971    420.23222     928.0051    -299.4575            0   -6.6501695            0            0            0            0            0            0 
10303000    509.32325    74023.877    459.96739   -321.88902    700.61954    378.73052     928.5767   -321.88902            0    -7.074603            0            0            0            0            0            0 
10304000    528.95407    78740.129    468.75405   -284.08878    714.00333    429.91455    1037.3358   -284.08878            0   -6.6508596            0            0            0            0            0            0 
10305000    421.39574    80071.295    464.12616   -297.83217    706.95416    409.12199    901.21011   -297.83217            0   -6.5402907            0            0            0            0            0            0 
10306000    484.30186     77174.32      478.124   -297.11759    728.27558      431.158    976.24375   -297.11759            0   -6.7858006            0            0            0            0            0            0 
10307000    527.94001    75601.357    462.64742   -307.45366    704.70174    397.24808    979.33797   -307.45366            0   -6.9269861            0            0            0            0            0            0 
10308000    476.79733    79884.978    429.57647    -277.2988    654.32828    377.02948    932.51765    -277.2988            0   -6.5555447            0            0            0            0            0            0 
10309000    470.74969    79178.386    453.39622   -293.03225    690.61037    397.57812    941.16952   -293.03225            0   -6.6140467            0            0            0            0            0            0 
10310000    529.92653    78316.765    497.30058   -290.69184    757.48523    466.79339    1072.0594   -290.69184            0   -6.6868127            0            0            0            0            0            0 
10311000    444.65905    81236.881    481.31498   -290.72724    733.13605    442.40881    969.22154   -290.72724            0   -6.4464507            0            0            0            0            0            0 
10312000    540.61618    75193.911    438.11427   -292.70608    667.33299    374.62692    967.48071   -292.70608            0   -6.9645206            0            0            0            0            0            0 
10313000    416.61481    79070.663    435.05587   -300.32969    662.67446    362.34477    842.77018   -300.32969            0   -6.6230575            0            0            0            0            0            0 
10314000     535.5168    76965.276    440.19166   -290.58331    670.49726    379.91395    981.00992   -290.58331            0   -6.8042314            0            0            0            0            0            0 
10315000    467.62801    77422.391    484.27541   -304.58237    737.64536      433.063    961.07401   -304.58237            0   -6.7640581            0            0            0            0            0            0 
10316000    544.83347    70415.054    450.55975   -327.23921    686.28988    359.05067    918.55723   -327.23921            0   -7.4371816            0            0            0            0            0            0 
10317000    431.30621     78388.06    436.51274   -304.19725    664.89356    360.69631    853.76965   -304.19725            0   -6.6807311            0            0            0            0            0            0 
10318000    499.43328    77753.965    456.12959   -301.83668    694.77383    392.93716    959.27543   -301.83668            0   -6.7352134            0            0            0            0            0            0 
10319000    439.34544     78436.39    463.67903   -313.51403    706.27309    392.75906    895.33259   -313.51403            0   -6.6766146            0            0            0            0            0            0 
10320000    488.88721    76939.123    479.40421   -303.62216    730.22559    426.60343    975.17311   -303.62216            0   -6.8065442            0            0            0            0            0            0 
10321000    540.53178    74381.625    475.98135   -300.68149    725.01191    424.33042    1010.6883   -300.68149            0   -7.0405768            0            0            0            0            0            0 
10322000    409.02092    79037.124    442.08882    -293.7682    673.38701    379.61881    851.08716    -293.7682            0   -6.6258679            0            0            0            0            0            0 
10323000    488.14438    79063.455    457.24433   -296.11429    696.47179     400.3575    963.21697   -296.11429            0   -6.6236613            0            0            0            0            0            0 
10324000    522.84504    76271.325    430.61188   -292.24168     655.9054    363.66372    945.24467   -292.24168            0   -6.8661394            0            0            0            0            0            0 
10325000    351.61753     81137.25    478.58425   -307.30362    728.97663    421.67301    837.74329   -307.30362            0   -6.4543665            0            0            0            0            0            0 
10326000    480.09838    72853.525    445.06181   -323.09273    677.91546    354.82273    864.92435   -323.09273            0   -7.1882527            0            0            0            0            0            0 
10327000    494.25485    75750.633    472.52213    -314.1428    719.74284    405.60004    951.62575    -314.1428            0   -6.9133356            0            0            0            0            0            0 
10328000    519.01914    78154.399    498.34871   -290.51529    759.08173    468.56644    1060.1454   -290.51529            0   -6.7007046            0            0            0            0            0            0 
10329000     566.1687    77497.388    449.53385   -291.51905    684.72724    393.20819    1033.1033   -291.51905            0   -6.7575122            0            0            0            0            0            0 
10330000    461.19668    77724.471    482.66607    -313.5917    735.19403    421.60233    944.38338    -313.5917            0   -6.7377692            0            0            0            0            0            0 
10331000    529.15201    71413.693    476.71567   -329.98546    726.13042    396.14496    947.25438   -329.98546            0   -7.3331811            0            0            0            0            0            0 
10332000    520.14369      78476.9    473.70651   -283.81245    721.54689    437.73444    1033.0415   -283.81245            0   -6.6731681            0            0            0            0            0            0 
10333000      489.384    80408.646    480.98966   -277.32344    732.64053    455.31709    1029.2068   -277.32344            0   -6.5128512            0            0            0            0            0            0 
10334000    505.71626     75804.04    437.28322   -297.56832    666.06714    368.49882    927.58036   -297.56832            0   -6.9084649            0            0            0            0            0            0 
10335000    432.62006    81949.512    438.67487   -278.13341     668.1869    390.05349    907.09918   -278.13341            0   -6.3903924            0            0            0            0            0            0 
10336000    506.58905    78352.615    448.93487   -285.45559    683.81487    398.35928     977.2348   -285.45559            0   -6.6837533            0            0            0            0            0            0 
10337000     532.5337     74870.62    486.97207   -304.98798    741.75291    436.76493    1018.2444   -304.98798            0   -6.9945934            0            0            0            0            0            0 
10338000    514.43918    75677.155    483.29259   -312.16976    736.14834    423.97859    991.75157   -312.16976            0    -6.920048            0            0            0            0            0            0 
10339000    436.27021     78254.17    445.23941   -298.12008    678.18597    380.06589    877.96224   -298.12008            0   -6.6921615            0            0            0            0            0            0 
10340000    503.68521    77185.018    444.50228   -298.67244    677.06317    378.39073     945.3712   -298.67244            0   -6.7848601            0            0            0            0            0            0 
10341000    598.42075    78387.623    494.10263   -276.01332    752.61413    476.60082    1160.7173   -276.01332            0   -6.6807683            0            0            0            0            0            0 
10342000    538.00928     76872.87    473.67334   -294.74592    721.49635    426.75043    1029.9191   -294.74592            0   -6.8124105            0            0            0            0            0            0 
10343000    555.21979    79590.222    448.84847   -271.99248    683.68327     411.6908    1056.1576   -271.99248            0   -6.5798226            0            0            0            0            0            0 
10344000    454.62073    78251.832    447.75833   -295.58722    682.02277    386.43555    905.25905   -295.58722            0   -6.6923614            0            0            0            0            0            0 
10345000    464.56084    73213.366     435.1818   -325.74451    662.86628    337.12177    833.15282   -325.74451            0   -7.1529227            0            0            0            0            0            0 
10346000     459.8914    76389.622     465.6968   -306.98308    709.34654    402.36345    914.71204   -306.98308            0   -6.8555064            0            0            0            0            0            0 
10347000    582.52294    77408.501    474.50587   -283.98346    722.76447    438.78101    1096.4049   -283.98346            0   -6.7652717            0            0            0            0            0            0 
10348000    501.74361    80479.007    439.91237    -274.7251    670.07186    395.34676    984.24513    -274.7251            0   -6.5071571            0            0            0            0            0            0 
10349000    563.24355    75569.938    472.19995   -292.07253     719.2521    427.17957    1047.9359   -292.07253            0    -6.929866            0            0            0            0            0            0 
10350000    473.63071     76681.77    476.02018   -309.00354    725.07105    416.06751    945.74055   -309.00354            0   -6.8293878            0            0            0            0            0            0 
10351000    510.37606    80030.555    498.26239    -283.4188    758.95025    475.53145    1071.2238    -283.4188            0     -6.54362            0            0            0            0            0            0 
10352000    434.73812    81055.638    454.43556   -288.55076    692.19348    403.64272    917.55246   -288.55076            0   -6.4608651            0            0            0            0            0            0 
10353000    517.85091    73396.036    450.57194   -315.43322    686.30845    370.87523    925.18591   -315.43322            0   -7.1351203            0            0            0            0            0            0 
[...]
14939000    604.27875    74681.417    462.23296   -296.62895    704.07045     407.4415    1065.5928   -296.62895            0    -7.012314            0            0            0            0            0            0 
14940000    404.35579    83793.817    436.44888   -279.45317    664.79629    385.34312    879.48485   -279.45317            0   -6.2497397            0            0            0            0            0            0 
14941000    558.18741     77512.83    473.74177   -292.24895     721.6006    429.35164    1060.3519   -292.24895            0    -6.756166            0            0            0            0            0            0 
14942000    532.81401    74256.655    467.72944   -312.19029    712.44265    400.25236     977.2671   -312.19029            0   -7.0524257            0            0            0            0            0            0 
14943000    394.87268    76851.754     449.5193   -308.13441    684.70506    376.57065    819.14553   -308.13441            0   -6.8142822            0            0            0            0            0            0 
14944000    418.93051    80976.254    451.65802   -291.18307    687.96275    396.77968    891.51801   -291.18307            0    -6.467199            0            0            0            0            0            0 
14945000    564.51688    76753.129    468.88003   -285.67991    714.19522    428.51531    1060.4161   -285.67991            0   -6.8230384            0            0            0            0            0            0 
14946000     489.7524    76958.313     478.7763    -296.9635    729.26916    432.30565    981.98321    -296.9635            0    -6.804847            0            0            0            0            0            0 
14947000    426.79603     79574.97    467.39746   -296.64001    711.93698    415.29697    910.60201   -296.64001            0   -6.5810838            0            0            0            0            0            0 
14948000    433.32577    75361.237     426.3107   -318.91474    649.35387    330.43913    806.69289   -318.91474            0   -6.9490572            0            0            0            0            0            0 
14949000    414.80713    80190.342    479.99466   -300.04842    731.12495    431.07654    916.19093   -300.04842            0   -6.5305813            0            0            0            0            0            0 
14950000    571.75873    74086.353    425.81151   -299.73026     648.5935    348.86324    966.63338   -299.73026            0   -7.0686371            0            0            0            0            0            0 
14951000    444.18643    78207.096    451.32539   -299.94375     687.4561    387.51235    894.13819   -299.94375            0   -6.6961896            0            0            0            0            0            0 
14952000    536.28413    77553.728    464.13144   -290.24724    706.96219    416.71495    1023.2746   -290.24724            0   -6.7526031            0            0            0            0            0            0 
14953000    581.41125    77627.214    480.79543   -286.26478    732.34469    446.07991    1104.3033   -286.26478            0   -6.7462107            0            0            0            0            0            0 
14954000    559.67167    77419.521    477.77085   -289.71659    727.73766    438.02107    1069.9376   -289.71659            0   -6.7643088            0            0            0            0            0            0 
14955000    486.36629    81199.867    460.68867   -279.46039    701.71819    422.25779    998.22091   -279.46039            0   -6.4493892            0            0            0            0            0            0 
14956000    506.91661    77671.092    442.26303   -295.95725    673.65237    377.69511    951.90653   -295.95725            0   -6.7423996            0            0            0            0            0            0 
14957000    514.66143    75659.467    473.04963   -307.69762    720.54633    412.84871    980.73422   -307.69762            0   -6.9216658            0            0            0            0            0            0 
14958000    464.49111    80073.364    474.11638   -289.15024     722.1712    433.02096    975.44805   -289.15024            0   -6.5401217            0            0            0            0            0            0 
14959000    402.07067    76597.087     426.5775   -311.48371    649.76026    338.27655    787.42566   -311.48371            0   -6.8369382            0            0            0            0            0            0 
14960000    488.09696    74401.036    459.44709   -321.49891    699.82703    378.32812    907.94397   -321.49891            0   -7.0387399            0            0            0            0            0            0 
14961000    462.03904      81557.1    463.36283    -291.4614    705.79146    414.33006    963.89161    -291.4614            0   -6.4211398            0            0            0            0            0            0 
14962000    458.39842    79639.372    474.39804   -294.47529    722.60022    428.12492    960.53569   -294.47529            0   -6.5757618            0            0            0            0            0            0 
14963000    478.08579    76865.901    476.03129   -307.70901    725.08797    417.37896    953.31806   -307.70901            0   -6.8130282            0            0            0            0            0            0 
14964000    509.94889    75199.787    448.41802    -314.9279    683.02761    368.09971    927.36665    -314.9279            0   -6.9639765            0            0            0            0            0            0 
14965000    427.02579    78930.473    462.50695   -295.45677    704.48778    409.03101    900.58893   -295.45677            0   -6.6348208            0            0            0            0            0            0 
14966000    543.43889    73891.957    507.28621   -313.69463    772.69527    459.00064    1044.6313   -313.69463            0   -7.0872334            0            0            0            0            0            0 
14967000    505.64015    79870.712    457.18474   -287.61333    696.38102     408.7677    997.75373   -287.61333            0   -6.5567156            0            0            0            0            0            0 
14968000    499.38407    78738.615    429.71904   -288.62738    654.54543    365.91805    939.37174   -288.62738            0   -6.6509875            0            0            0            0            0            0 
14969000    556.90115    71960.593    445.73215   -312.99579    678.93651    365.94072    950.39257   -312.99579            0    -7.277449            0            0            0            0            0            0 
14970000     520.3089    77051.456    477.15742   -294.39727    726.80329    432.40602    1017.0857   -294.39727            0    -6.796621            0            0            0            0            0            0 
14971000    512.25881    79925.056    474.72375   -279.06828    723.09634    444.02806    1041.1297   -279.06828            0   -6.5522575            0            0            0            0            0            0 
14972000    516.26912    75675.616    454.57089   -299.37474    692.39962    393.02488    962.80594   -299.37474            0   -6.9201887            0            0            0            0            0            0 
14973000    417.85375    80729.163    435.87108   -296.09798    663.91619    367.81821    859.77917   -296.09798            0   -6.4869934            0            0            0            0            0            0 
14974000    481.16109    78931.789    455.08396   -290.03399    693.18112    403.14714    957.03052   -290.03399            0   -6.6347102            0            0            0            0            0            0 
14975000    431.27219     79761.47    450.36999   -293.81979    686.00083    392.18104    893.85377   -293.81979            0   -6.5656957            0            0            0            0            0            0 
14976000     444.4596    75946.266    451.89591   -316.51022     688.3251    371.81489    864.09763   -316.51022            0   -6.8955272            0            0            0            0            0            0 
14977000    360.07436     78243.74    444.82837   -314.55639    677.55987    363.00348    773.88602   -314.55639            0   -6.6930536            0            0            0            0            0            0 
14978000    509.89434    74545.767    468.85566   -306.99951     714.1581    407.15859    961.50223   -306.99951            0   -7.0250742            0            0            0            0            0            0 
14979000    465.80201    80520.651    462.10605   -289.95708    703.87713    413.92005    960.91652   -289.95708            0   -6.5037917            0            0            0            0            0            0 
14980000    571.62059    74858.354    469.84627   -301.80923    715.66698    413.85776    1037.9144   -301.80923            0   -6.9957395            0            0            0            0            0            0 
14981000    541.08539    76764.908    464.96913   -287.99963    708.23815    420.23852    1026.0039   -287.99963            0   -6.8219915            0            0            0            0            0            0 
14982000     456.8718      77591.8    435.24899    -295.2613    662.96863    367.70733      884.702    -295.2613            0   -6.7492899            0            0            0            0            0            0 
14983000    454.32761    79226.458    440.09198   -287.33329    670.34544    383.01214     907.9589   -287.33329            0   -6.6100335            0            0            0            0            0            0 
14984000    529.49574     82404.82    463.30058   -268.62484    705.69664     437.0718    1073.4144   -268.62484            0   -6.3550839            0            0            0            0            0            0 
14985000    543.75679    76864.148    440.39333   -285.69333    670.80446    385.11113    994.65421   -285.69333            0   -6.8131835            0            0            0            0            0            0 
14986000       463.49    75047.924    460.69832   -308.73822    701.73289    392.99467    900.28308   -308.73822            0   -6.9780684            0            0            0            0            0            0 
14987000    390.43842    80815.324    443.78321   -285.65293    675.96789    390.31496    850.48904   -285.65293            0   -6.4800773            0            0            0            0            0            0 
14988000    529.16011    78030.637    469.85846   -284.21951    715.68555    431.46604    1033.6486   -284.21951            0   -6.7113324            0            0            0            0            0            0 
14989000    564.42297    78169.258    474.68758   -292.42706    723.04125    430.61419    1074.0668   -292.42706            0    -6.699431            0            0            0            0            0            0 
14990000    515.50009    79344.624    466.77165   -291.35338    710.98375    419.63038    1016.1464   -291.35338            0   -6.6001894            0            0            0            0            0            0 
14991000    461.87098    74468.469     425.2951   -313.86887    647.80692    333.93805    835.55129   -313.86887            0   -7.0323662            0            0            0            0            0            0 
14992000     431.4882     73874.06    435.60361   -325.71947    663.50878    337.78931    802.66494   -325.71947            0   -7.0889504            0            0            0            0            0            0 
14993000     517.5097    81252.917    449.56889   -264.09278    684.78061    420.68783    1033.9319   -264.09278            0   -6.4451784            0            0            0            0            0            0 
14994000    499.92622    75775.763    468.33314   -299.93593     713.3622    413.42627    965.90062   -299.93593            0   -6.9110428            0            0            0            0            0            0 
14995000    518.39649     75141.64    428.00357    -308.9857    651.93243    342.94673    911.03865    -308.9857            0   -6.9693653            0            0            0            0            0            0 
14996000    466.66448    79795.092     466.1988   -286.63166    710.11119    423.47953    966.55077   -286.63166            0   -6.5629293            0            0            0            0            0            0 
14997000    477.05918    79254.949    471.76164   -300.89815    718.58447    417.68631    969.09619   -300.89815            0   -6.6076574            0            0            0            0            0            0 
14998000    567.30657    75022.493    475.15614   -296.15346    723.75495    427.60149    1048.3064   -296.15346            0   -6.9804338            0            0            0            0            0            0 
14999000    432.99779    80427.752    423.58705   -296.43759    645.20522    348.76764    856.65511   -296.43759            0    -6.511304            0            0            0            0            0            0 
15000000    606.63447    78725.084    510.72942   -280.96098    777.93995    496.97898    1193.4709   -280.96098            0   -6.6521307            0            0            0            0            0            0 
Loop time of 1206.59 on 8 procs for 5000000 steps with 512 atoms

Pair  time (%) = 610.248 (50.5762)
Bond  time (%) = 0.441193 (0.0365653)
Neigh time (%) = 27.1919 (2.25362)
Comm  time (%) = 408.938 (33.8921)
Outpt time (%) = 0.295061 (0.0244541)
Other time (%) = 159.476 (13.2171)

Nlocal:    64 ave 73 max 55 min
Histogram: 2 0 2 0 0 0 1 0 1 2
Nghost:    1038.62 ave 1096 max 985 min
Histogram: 1 1 0 1 1 1 1 1 0 1
Neighs:    4208 ave 5055 max 3454 min
Histogram: 2 1 0 0 1 1 1 0 0 2

Total # of neighbors = 33664
Ave neighs/atom = 65.75
Ave special neighs/atom = 0
Neighbor list builds = 99694
Dangerous builds = 0

Averages
Group Pressure(MPa) Volume(m3) Temperature(K) PE(J) KE(J) ET(J) ET^2(J) H(J) H^2(J^2) V^2(m6) V*H(m3*J) Hconf(J) Uext*Hconf(J^2) V*Hconf(m3*J) Uext(J)
Block1 50.173544965956281771 7.7502079767327720084e-26 460.60665768871405135 -2.0665640187337456095e-18 4.8744559294656658275e-18 2.8078919107319167513e-18 7.9253659058583533703e-36 6.6899252509515786131e-18 4.5007738509580327781e-35 6.0134427994607400538e-51 5.185131548652043533e-43 1.8154693214859162523e-18 -3.7306520858555669979e-36 1.4072064651508084215e-43 -2.0665640187337456095e-18
Block2 50.119736403021796889 7.7441350168706853071e-26 461.01986231678409922 -2.0702747162826624893e-18 4.8788287445688714111e-18 2.808554028286219707e-18 7.9268622505885429875e-36 6.6841486924571731808e-18 4.4910907933206423433e-35 6.0036701556719521073e-51 5.1767952575147952187e-43 1.8053199478882971474e-18 -3.717555621085884337e-36 1.3986395738767683015e-43 -2.0702747162826624893e-18
Block3 49.954622632862253795 7.7554857873018007731e-26 460.43214926260679931 -2.0675061257065619421e-18 4.8726091614735518647e-18 2.8051030357669799078e-18 7.9089499806292470087e-36 6.6734132301618040938e-18 4.477445635210412583e-35 6.0214830008819520428e-51 5.1763717999797698991e-43 1.8008040686882564661e-18 -3.7006463509072855246e-36 1.397117071575702756e-43 -2.0675061257065619421e-18
Block4 49.98303009144665765 7.7481221272680060642e-26 459.77250843515906809 -2.0675799902560715832e-18 4.8656283892919027526e-18 2.7980483990358350212e-18 7.8674139851978108218e-36 6.6653387339554853879e-18 4.46641453500496303e-35 6.0099055023417101432e-51 5.165311800600624372e-43 1.7997103446635726205e-18 -3.6984317911122663618e-36 1.3953008360297334351e-43 -2.0675799902560715832e-18
Block5 50.059035302873262196 7.7593531721306458041e-26 459.30190358694517272 -2.062497276207341894e-18 4.8606481256449931372e-18 2.7981508494376454654e-18 7.8672142242105830657e-36 6.6752873028487347558e-18 4.479822757702326804e-35 6.0279553973547966306e-51 5.179399115398839556e-43 1.8146391772037447001e-18 -3.7226821697245575031e-36 1.4079466123535897062e-43 -2.062497276207341894e-18
Ave_blocks 50.057993879232057566 7.7514608160607824506e-26 460.22661625804187224 -2.0668844254372767036e-18 4.8704340700889966905e-18 2.8035496446517196017e-18 7.8991612692969085199e-36 6.6776226420749548981e-18 4.4831095144392752938e-35 6.0152913711422306703e-51 5.1766019044292146751e-43 1.8071885719859578225e-18 -3.7139936037371128131e-36 1.4012421117973204444e-43 -2.0668844254372767036e-18
Stdev_blocks 0.081817432745665275018 5.3828145209542889217e-29 0.61273518808586024953 2.5184968723294620567e-21 6.484384497924362992e-21 4.5983224619256959833e-21 2.6752009078950615021e-38 8.5791710019803130194e-21 1.1809608234900877433e-37 8.557935355575329081e-54 6.4519144090778932728e-46 6.6971613785896043594e-21 1.25379690801672573e-38 5.2841604222179007582e-46 2.5184968723294620567e-21






Properties
Group rho(kg/m3) Cp(J/K) Cp_conf(J/K) Cp_id(J/K) Cp2(J/K) kT(1/Pa) aP(1/K) aP2(1/K) Cv(J/K) uJT(K/Pa) sos(m/s) Cv2(J/K) uJT2(K/Pa) sos2(m/s) CvNVT(J/K)
Block1 175.98539550328428049 8.6249412142385878189e-20 4.5354332854767976985e-22 3.7524970324142857947e-20 3.7978513652690534707e-20 1.393982132511668619e-08 0.00013230077056266626367 7.9282183243732542825e-05 8.6204588090917006672e-20 -8.4382268240046286671e-07 638.62507028051572888 3.7962416926265962658e-20 -1.9661608439971693905e-06 638.59444567842456308 1.4034355149369170394e-20
Block2 176.12340345909558437 7.9424238087016997285e-20 7.1341916825458221771e-22 3.754596374213530546e-20 3.8259382910389890687e-20 1.3201837451724795649e-08 0.00022014194198184721188 0.00025322006883633026326 7.9293180019993909615e-20 -8.7607818597421708931e-07 656.3460648227061256 3.8085980784845065761e-20 -1.7878199259332168787e-06 657.29553670965822221 1.3251852551436982477e-20
Block3 175.86563284677828278 8.2000941451466411119e-20 1.4911902261298469884e-21 3.7516105511159431528e-20 3.9007295737289278516e-20 1.3644729443675102122e-08 0.00035932090898972544489 0.00022292434888308577381 8.1663051950641673247e-20 -7.8930749154539791981e-07 646.87990780501957033 3.8877241432596715739e-20 -1.7841408059067965169e-06 646.62463575640913405 1.3784661164044758664e-20
Block4 176.03277202071492979 8.1343055331730765059e-20 2.1576186622037003248e-21 3.7482603748211124127e-20 3.9640222410414821443e-20 1.3349605783277976971e-08 0.0004094687100039244858 0.00038175682922720439397 8.0895638357375102835e-20 -7.7319958060812743705e-07 654.13396934649904324 3.9251316408346824443e-20 -1.6115352814220122732e-06 655.55622155679304797 1.3136303351275291932e-20
Block5 175.77797862286308828 8.1977485846559319674e-20 -3.6508041933191949059e-22 3.7458709744550849716e-20 3.7093629325218933234e-20 1.4631175067811446041e-08 -8.4980904688358572629e-05 -4.2484047223592591913e-05 8.1959894979017640604e-20 -9.8346702370588962901e-07 623.62679131493246132 3.7089232934079996078e-20 -2.1326469271611101121e-06 623.5968341783861888 1.2897804762358397602e-20
Ave_blocks 175.95703649054723883 8.219902657183186945e-20 8.9013819316077799965e-22 3.7505670614039912552e-20 3.8395808807200694125e-20 1.375343381432119974e-08 0.00020725028536996097485 0.00017893987659335205335 8.2003270679589064187e-20 -8.5317499284681892485e-07 643.92236071393449492 3.8253237697226912936e-20 -1.8564607568840608649e-06 644.33353477593425396 1.3420995395696919311e-20
Stdev_blocks 0.12217562639987085416 2.2327596904887926909e-21 8.677774761377407153e-22 3.1120108039647095669e-23 8.7302922701661087284e-22 5.0681797094076292021e-10 0.00017618198480690098464 0.00014666090612034372409 2.2952184632444884645e-21 7.4917500701415035601e-08 11.894064760279889015 7.5538075955597267701e-22 1.7790061117276337215e-07 12.346329266266671709 4.2233879273099680152e-22






