LAMMPS (28 Oct 2012)
Scanning data file ...
Reading data file ...
  orthogonal box = (0 0 0) to (100 100 100)
  2 by 2 by 2 MPI processor grid
  512 atoms
Finding 1-2 1-3 1-4 neighbors ...
  0 = max # of 1-2 neighbors
  0 = max # of 1-3 neighbors
  0 = max # of 1-4 neighbors
  1 = max # of special neighbors
WARNING: Resetting reneighboring criteria during minimization (min.cpp:173)
Setting up minimization ...
Memory usage per processor = 4.05499 Mbytes
Step Temp E_pair E_mol TotEng Press 
       0       360.15    1409.7233            0    1958.3016    437.59323 
     701       360.15   -217.27527            0    331.30303    24.848329 
Loop time of 0.0551589 on 8 procs for 701 steps with 512 atoms

Minimization stats:
  Stopping criterion = energy tolerance
  Energy initial, next-to-last, final = 
         1409.72334813     -217.256630745     -217.275265106
  Force two-norm initial, final = 5034.49 0.337455
  Force max component initial, final = 2457.89 0.147661
  Final line search alpha, max atom move = 0.254892 0.0376377
  Iterations, force evaluations = 701 710

Pair  time (%) = 0.00895104 (16.2277)
Bond  time (%) = 6.01411e-05 (0.109033)
Neigh time (%) = 0.00313532 (5.68417)
Comm  time (%) = 0.0218305 (39.5775)
Outpt time (%) = 0 (0)
Other time (%) = 0.0211819 (38.4015)

Nlocal:    64 ave 74 max 52 min
Histogram: 1 0 0 1 1 2 0 2 0 1
Nghost:    235.125 ave 266 max 224 min
Histogram: 4 0 2 0 0 1 0 0 0 1
Neighs:    316.25 ave 371 max 226 min
Histogram: 1 0 0 1 1 1 0 1 0 3

Total # of neighbors = 2530
Ave neighs/atom = 4.94141
Ave special neighs/atom = 0
Neighbor list builds = 60
Dangerous builds = 0
Setting up run ...
Memory usage per processor = 3.36354 Mbytes
Step Temp E_pair E_mol TotEng Press Volume 
     701       360.15   -217.27527            0    331.30303    24.848329      1000000 
 5000701    356.99193   -382.59148            0    161.17646    501.60525    62867.016 
Loop time of 1412.76 on 8 procs for 5000000 steps with 512 atoms

Pair  time (%) = 777.687 (55.0472)
Bond  time (%) = 0.449555 (0.031821)
Neigh time (%) = 31.46 (2.22684)
Comm  time (%) = 440.754 (31.198)
Outpt time (%) = 4.24087e-05 (3.00183e-06)
Other time (%) = 162.413 (11.4961)

Nlocal:    64 ave 69 max 60 min
Histogram: 2 0 2 0 0 2 0 0 0 2
Nghost:    1200.38 ave 1226 max 1172 min
Histogram: 2 0 0 0 1 2 0 1 0 2
Neighs:    5314.75 ave 6140 max 4816 min
Histogram: 2 1 2 1 0 0 0 0 0 2

Total # of neighbors = 42518
Ave neighs/atom = 83.043
Ave special neighs/atom = 0
Neighbor list builds = 88155
Dangerous builds = 6
Setting up run ...
Memory usage per processor = 3.9673 Mbytes
Step Press Volume Temp PotEng KinEng TotEng Enthalpy E_vdwl E_coul E_tail E_long E_bond E_angle E_dihed E_impro E_mol 
10000000    501.60525    62867.016    356.99193   -382.59148    543.76794    161.17646     621.0737   -382.59148            0   -8.3301162            0            0            0            0            0            0 
10001000    507.58918    58448.424    363.22206    -417.7687    553.25765    135.48894    568.16319    -417.7687            0   -8.9598574            0            0            0            0            0            0 
10002000    545.43339    58403.373    361.38161   -415.58853    550.45427    134.86574    599.44043   -415.58853            0   -8.9667688            0            0            0            0            0            0 
10003000    521.32365    60527.086    370.99494   -402.87809    565.09725    162.21916    622.40481   -402.87809            0    -8.652152            0            0            0            0            0            0 
10004000    543.73724    59134.209    369.86527   -411.10739    563.37653    152.26914    621.19455   -411.10739            0    -8.855949            0            0            0            0            0            0 
10005000    472.45401    61791.959    367.36552   -399.76539    559.56893    159.80354    585.56603   -399.76539            0   -8.4750436            0            0            0            0            0            0 
10006000    508.81985    57962.821    352.02025   -418.49745     536.1951    117.69766    547.81747   -418.49745            0   -9.0349217            0            0            0            0            0            0 
10007000    492.42151    59050.748    372.50146   -414.37559    567.39196    153.01637     577.0871   -414.37559            0   -8.8684659            0            0            0            0            0            0 
10008000    509.46845     63042.03    351.68328   -372.17681    535.68184    163.50503    631.91203   -372.17681            0   -8.3069905            0            0            0            0            0            0 
10009000    555.69176    61083.811    350.73177    -382.5531     534.2325     151.6794    646.71448    -382.5531            0   -8.5732952            0            0            0            0            0            0 
10010000    508.82515    59077.416    344.70125   -412.04104    525.04686    113.00582    551.40118   -412.04104            0   -8.8644627            0            0            0            0            0            0 
10011000     480.6582    57959.969    343.83368   -414.10284    523.72538    109.62255    515.91653   -414.10284            0   -9.0353661            0            0            0            0            0            0 
10012000    489.31211    62456.336    371.01736   -387.45603    565.13139    177.67536    623.37098   -387.45603            0   -8.3848906            0            0            0            0            0            0 
10013000    416.81461    58404.616     345.6824   -425.21628    526.54134    101.32505    456.35583   -425.21628            0    -8.966578            0            0            0            0            0            0 
10014000    500.13943     56530.18    376.93484   -438.80017    574.14485    135.34469    547.67698   -438.80017            0   -9.2638932            0            0            0            0            0            0 
10015000    436.61945     60772.66    356.56113   -405.25134    543.11174     137.8604    524.83923   -405.25134            0   -8.6171898            0            0            0            0            0            0 
10016000    508.59327    60199.538    360.82691   -402.89945    549.60936    146.70991    593.22862   -402.89945            0   -8.6992287            0            0            0            0            0            0 
10017000    578.15767    58274.807    367.85443   -408.09236    560.31364    152.22127    643.58492   -408.09236            0   -8.9865513            0            0            0            0            0            0 
10018000    521.45425    60960.339    363.17349   -389.02539    553.18365    164.15826    627.75404   -389.02539            0     -8.59066            0            0            0            0            0            0 
10019000    535.25211    60029.461    357.86293   -395.21662    545.09465    149.87803    618.47419   -395.21662            0   -8.7238755            0            0            0            0            0            0 
10020000    534.95029    60084.417    378.87885   -396.44287    577.10596    180.66309    649.42377   -396.44287            0   -8.7158963            0            0            0            0            0            0 
10021000    548.94503    60043.487     358.1025   -400.36962    545.45955    145.08993    625.78609   -400.36962            0   -8.7218376            0            0            0            0            0            0 
10022000    465.43429    60394.991    360.49331   -411.27018    549.10122    137.83104    547.78509   -411.27018            0   -8.6710757            0            0            0            0            0            0 
10023000    455.61956    59733.403    348.39188   -414.53327     530.6684    116.13513     513.0483   -414.53327            0   -8.7671139            0            0            0            0            0            0 
10024000     439.8392    60220.601     332.7293   -409.11066    506.81125    97.700591    483.99188   -409.11066            0   -8.6961859            0            0            0            0            0            0 
10025000    469.67822    62535.888    366.78787   -393.56588    558.68905    165.12318    593.47995   -393.56588            0   -8.3742242            0            0            0            0            0            0 
10026000     599.9717    57061.962    343.37792   -420.58534    523.03117    102.44583    601.73639   -420.58534            0   -9.1775594            0            0            0            0            0            0 
10027000    441.62461    61692.131    357.25591   -399.98824    544.17003    144.18179    541.51872   -399.98824            0   -8.4887576            0            0            0            0            0            0 
10028000    588.85413    58993.757    370.93836   -406.78746    565.01106    158.22361    664.85217   -406.78746            0   -8.8770333            0            0            0            0            0            0 
10029000    489.77921    61298.355    354.30245   -399.58527    539.67134    140.08607    577.93576   -399.58527            0   -8.5432887            0            0            0            0            0            0 
10030000    491.57545    61128.654    348.26796   -401.39711    530.47964    129.08253    567.32142   -401.39711            0   -8.5670059            0            0            0            0            0            0 
10031000    521.57454     58337.33    346.51716   -409.77938    527.81284    118.03346    561.78392   -409.77938            0   -8.9769201            0            0            0            0            0            0 
10032000    422.90462    61403.625    341.47727   -398.31583     520.1361    121.82027    500.53512   -398.31583            0   -8.5286421            0            0            0            0            0            0 
10033000     408.5728    62539.088    356.66762   -394.63958    543.27395    148.63437    521.28074   -394.63958            0   -8.3737957            0            0            0            0            0            0 
10034000    474.94629    59007.814    358.04026   -414.63401    545.36475    130.73073    539.45452   -414.63401            0   -8.8749187            0            0            0            0            0            0 
10035000    498.71046    62083.818    350.08793    -384.5379    533.25182    148.71392    600.26073    -384.5379            0    -8.435202            0            0            0            0            0            0 
10036000     467.1619    58613.712    362.48801   -428.60865    552.13954    123.53089    522.87063   -428.60865            0    -8.934591            0            0            0            0            0            0 
10037000    511.29127    58534.123    376.13567   -420.31043    572.92757    152.61713    589.08611   -420.31043            0   -8.9467394            0            0            0            0            0            0 
10038000    450.42547     63226.12    359.99418   -389.74888    548.34095    158.59207    573.92404   -389.74888            0   -8.2828038            0            0            0            0            0            0 
10039000    483.92441    60841.185     359.0861     -401.835    546.95777    145.12276    574.51193     -401.835            0   -8.6074843            0            0            0            0            0            0 
10040000    391.24867    59893.148    355.39328   -418.76917    541.33289    122.56372    464.31165   -418.76917            0   -8.7437306            0            0            0            0            0            0 
10041000    328.08993    60850.116    329.88216   -415.34983     502.4745    87.124674    378.28366   -415.34983            0    -8.606221            0            0            0            0            0            0 
10042000     403.0805    61189.868     357.4156   -400.53663    544.41327    143.87664    503.58224   -400.53663            0   -8.5584356            0            0            0            0            0            0 
10043000    500.68596    61779.672    339.32407   -387.32866    516.85637    129.52771    580.64233   -387.32866            0   -8.4767291            0            0            0            0            0            0 
10044000    559.01599    58177.213    381.12552   -411.24231    580.52808    169.28577    643.58567   -411.24231            0   -9.0016265            0            0            0            0            0            0 
10045000    519.93073    60439.552    369.75164   -401.06189    563.20345    162.14155    620.43391   -401.06189            0   -8.6646828            0            0            0            0            0            0 
10046000     475.3699    59168.306    332.41867   -414.61112     506.3381    91.726983    501.92798   -414.61112            0   -8.8508456            0            0            0            0            0            0 
10047000    519.43001    59021.863    354.48832   -404.45925    539.95446    135.49521    582.60671   -404.45925            0    -8.872806            0            0            0            0            0            0 
10048000    409.62442    63684.445    362.98782   -390.67891    552.90085    162.22194    542.66976   -390.67891            0    -8.223194            0            0            0            0            0            0 
10049000    633.13258    56236.788    344.45881   -420.79268    524.67757    103.88488    623.15229   -420.79268            0   -9.3122235            0            0            0            0            0            0 
10050000    462.59156     59139.25    360.59479   -418.28115    549.25579    130.97464    529.95306   -418.28115            0   -8.8551942            0            0            0            0            0            0 
10051000    451.64124    62583.413    372.10659   -387.37237     566.7905    179.41813    591.63781   -387.37237            0   -8.3678649            0            0            0            0            0            0 
10052000    448.62298    59436.336    379.05804   -415.17648     577.3789    162.20243     551.0769   -415.17648            0   -8.8109325            0            0            0            0            0            0 
10053000    497.62532     57315.96    353.28151   -424.67586    538.11625    113.44039    529.40265   -424.67586            0   -9.1368887            0            0            0            0            0            0 
10054000    403.60054    60344.895    361.62217   -412.06674     550.8207    138.75397    493.95004   -412.06674            0   -8.6782743            0            0            0            0            0            0 
10055000    496.02813     57005.86    364.61264   -430.78021    555.37577    124.59556    536.97946   -430.78021            0   -9.1865914            0            0            0            0            0            0 
10056000    453.78543    58949.733    369.31358   -423.06462    562.53621    139.47159    529.60063   -423.06462            0   -8.8836627            0            0            0            0            0            0 
10057000    473.02758    61775.843    342.23338   -383.33058    521.28781    137.95722    564.12542   -383.33058            0   -8.4772545            0            0            0            0            0            0 
10058000    612.07926    56360.097    368.38253   -425.73599    561.11803    135.38204    638.48316   -425.73599            0   -9.2918496            0            0            0            0            0            0 
10059000    476.45344    59840.059    380.88513   -414.58397    580.16193    165.57796    581.38168   -414.58397            0   -8.7514878            0            0            0            0            0            0 
10060000    447.49672    61415.537    373.33346   -405.32672    568.65927    163.33254    564.14757   -405.32672            0    -8.526988            0            0            0            0            0            0 
10061000    466.31522    59267.936    346.81743   -415.96018    528.27021    112.31003    515.37522   -415.96018            0   -8.8359673            0            0            0            0            0            0 
10062000    451.65317    57533.108    352.37267   -431.67963    536.73191    105.05228    484.01701   -431.67963            0   -9.1024031            0            0            0            0            0            0 
10063000    351.57207    63020.659    367.01699   -401.88883    559.03805    157.14923    480.27619   -401.88883            0   -8.3098075            0            0            0            0            0            0 
10064000    468.38486    59124.675    362.33901   -422.57911    551.91259    129.33347    533.20897   -422.57911            0   -8.8573772            0            0            0            0            0            0 
10065000    359.77321    60681.177    348.81134   -409.69376    531.30731    121.61355    440.00303   -409.69376            0   -8.6301811            0            0            0            0            0            0 
10066000    395.07221    61465.641    357.96047   -402.53335    545.24322    142.70987    496.85786   -402.53335            0   -8.5200371            0            0            0            0            0            0 
10067000    497.22469     57535.64    361.99043   -427.46287    551.38162    123.91875    541.13915   -427.46287            0   -9.1020026            0            0            0            0            0            0 
10068000    549.54644    59380.749    376.10058   -402.53719    572.87412    170.33692    646.24816   -402.53719            0   -8.8191805            0            0            0            0            0            0 
10069000    493.83372    60952.008    378.17359   -398.63038    576.03172    177.40134    616.38125   -398.63038            0   -8.5918342            0            0            0            0            0            0 
10070000    449.89266    61267.375    360.82208    -408.1315    549.60201    141.47051    543.45941    -408.1315            0   -8.5476087            0            0            0            0            0            0 
10071000    501.98557     60325.96    360.92899   -406.89894    549.76485    142.86591    584.50892   -406.89894            0   -8.6809982            0            0            0            0            0            0 
10072000       521.08     60333.03     358.7856   -395.74586    546.50006    150.75419    609.25007   -395.74586            0   -8.6799809            0            0            0            0            0            0 
10073000    460.10333    62941.625    352.94095   -386.05713    537.59752    151.54039     573.8872   -386.05713            0   -8.3202419            0            0            0            0            0            0 
10074000    557.01671    56741.741    354.88026   -422.40992    540.55146    118.14154    579.08406   -422.40992            0   -9.2293527            0            0            0            0            0            0 
10075000    510.87666     61276.35    373.18841   -393.49276    568.43833    174.94556    631.49187   -393.49276            0   -8.5463568            0            0            0            0            0            0 
10076000    422.24603    61401.127    346.98462   -399.90908    528.52487    128.61578    506.72547   -399.90908            0   -8.5289891            0            0            0            0            0            0 
10077000    549.59431    58753.328     357.0466   -411.56107    543.85121    132.29014    603.21389   -411.56107            0   -8.9133597            0            0            0            0            0            0 
10078000    497.82354    60614.945    348.44028   -400.10555    530.74212    130.63657    570.71597   -400.10555            0    -8.639611            0            0            0            0            0            0 
10079000    461.34128    60635.343    378.05946   -399.16582    575.85788    176.69206    584.65812   -399.16582            0   -8.6367046            0            0            0            0            0            0 
10080000    645.91979    58634.192    367.97501   -399.65796    560.49731    160.83935    713.17799   -399.65796            0   -8.9314703            0            0            0            0            0            0 
10081000    403.08854    62906.626    355.35165   -388.19721    541.26947    153.07226    522.87722   -388.19721            0    -8.324871            0            0            0            0            0            0 
10082000     537.2738    56470.009    360.15308   -429.93985    548.58299    118.64314    561.11883   -429.93985            0   -9.2737641            0            0            0            0            0            0 
10083000    454.88333    58326.924    347.58471    -421.1331    529.43892    108.30582    495.24704    -421.1331            0   -8.9785215            0            0            0            0            0            0 
10084000    524.96787    65718.589    393.27002   -368.50994    599.02651    230.51656    733.66583   -368.50994            0   -7.9686669            0            0            0            0            0            0 
10085000    521.92725    61293.102    372.86291    -394.4038    567.94253    173.53873    640.08794    -394.4038            0   -8.5440209            0            0            0            0            0            0 
10086000    555.33723    60976.315    347.28779   -381.63817    528.98666    147.34849    641.19712   -381.63817            0   -8.5884092            0            0            0            0            0            0 
10087000    537.79425    61291.747    353.45818   -384.60259    538.38535    153.78276    634.50481   -384.60259            0   -8.5442098            0            0            0            0            0            0 
10088000    576.22071    61669.001    369.02769   -373.17843    562.10074    188.92231    707.16319   -373.17843            0   -8.4919415            0            0            0            0            0            0 
10089000    509.18108    57547.644    359.60727   -426.94744    547.75162    120.80418    548.14629   -426.94744            0    -9.100104            0            0            0            0            0            0 
10090000    465.16539    61918.777    355.97832   -389.69062    542.22402     152.5334    572.58791   -389.69062            0   -8.4576855            0            0            0            0            0            0 
10091000    484.63434    59501.287    364.97994   -403.23031    555.93523    152.70492    573.25375   -403.23031            0   -8.8013146            0            0            0            0            0            0 
10092000    498.41777     57144.63    369.85632   -427.64466     563.3629    135.71824    551.09752   -427.64466            0   -9.1642828            0            0            0            0            0            0 
10093000    536.84857    60222.775     363.9117   -394.60222    554.30809    159.70586     631.2132   -394.60222            0   -8.6958721            0            0            0            0            0            0 
10094000    407.06554    62664.516    358.49763    -391.7334    546.06141    154.32801    526.34426    -391.7334            0   -8.3570348            0            0            0            0            0            0 
10095000     514.9878    59047.458    339.76495   -399.18449    517.52791    118.34342    561.82342   -399.18449            0     -8.86896            0            0            0            0            0            0 
10096000      499.293    59953.155    337.77761   -404.35364    514.50081    110.14717    546.70663   -404.35364            0   -8.7349789            0            0            0            0            0            0 
10097000    489.75794    60614.793    373.96438   -406.27587    569.62028    163.34441    596.29268   -406.27587            0   -8.6396327            0            0            0            0            0            0 
10098000    506.54451    58856.414    350.50969   -412.09568    533.89423    121.79855    556.59631   -412.09568            0   -8.8977481            0            0            0            0            0            0 
10099000    533.58822    59321.894    353.34624   -403.18372    538.21484    135.03112    596.66443   -403.18372            0   -8.8279303            0            0            0            0            0            0 
10100000    455.64003    60719.709    363.20121   -408.89907    553.22588    144.32681    547.81186   -408.89907            0   -8.6247044            0            0            0            0            0            0 
10101000    455.92366    59738.237    369.25093   -411.10042    562.44077    151.34035    548.55057   -411.10042            0   -8.7664045            0            0            0            0            0            0 
10102000    438.61415    59711.291    374.60101   -419.95018    570.58999    150.63981    532.59727   -419.95018            0   -8.7703605            0            0            0            0            0            0 
10103000    508.81934    60415.036    371.54866   -403.18728    565.94067    162.75339     611.0697   -403.18728            0   -8.6681988            0            0            0            0            0            0 
10104000    504.20818    56800.006    359.94335   -435.10926    548.26353    113.15427    530.82511   -435.10926            0   -9.2198854            0            0            0            0            0            0 
10105000    382.36818    62875.486      357.463   -397.10578    544.48547    147.37969    498.00155   -397.10578            0    -8.328994            0            0            0            0            0            0 
10106000    467.63242    59130.226    340.73421   -407.23982    519.00427    111.76445      515.029   -407.23982            0   -8.8565456            0            0            0            0            0            0 
10107000    337.95683    60314.782    356.85286   -422.02105    543.55611    121.53506    418.81177   -422.02105            0   -8.6826069            0            0            0            0            0            0 
10108000    441.97123    60755.275    375.29333   -410.08734    571.64452    161.55718    553.16728   -410.08734            0   -8.6196556            0            0            0            0            0            0 
10109000    361.52441    60338.975    348.20186   -413.92954    530.37896    116.44943    434.58442   -413.92954            0   -8.6791257            0            0            0            0            0            0 
10110000    397.52531    61835.562    362.70335   -400.17947    552.46755    152.28807    510.77968   -400.17947            0   -8.4690674            0            0            0            0            0            0 
10111000    535.60688    58145.939     370.0569    -412.6437    563.66842    151.02473    605.21876    -412.6437            0   -9.0064682            0            0            0            0            0            0 
10112000    485.26326    58975.282    363.73521   -414.23333    554.03927    139.80595    557.17796   -414.23333            0   -8.8798141            0            0            0            0            0            0 
10113000    413.98483    63309.687    349.52643   -385.96371    532.39654    146.43284    528.66787   -385.96371            0   -8.2718706            0            0            0            0            0            0 
10114000    539.95937    56837.791    359.31106   -430.89431    547.30042    116.40611     563.9897   -430.89431            0   -9.2137562            0            0            0            0            0            0 
10115000    531.09757     59820.07    354.20462   -401.38425    539.52233    138.13808    601.47522   -401.38425            0   -8.7544122            0            0            0            0            0            0 
10116000    454.34843    62911.025    364.07765    -383.5903    554.56087    170.97057    587.83197    -383.5903            0   -8.3242889            0            0            0            0            0            0 
10117000    607.03886    59011.483    383.28167   -403.92793    583.81232    179.88439    702.31536   -403.92793            0   -8.8743668            0            0            0            0            0            0 
10118000    455.00156    61181.653     384.5323   -398.57424    585.71727    187.14303    593.12803   -398.57424            0   -8.5595847            0            0            0            0            0            0 
10119000    587.20628     57025.72    352.15572   -422.43849    536.40146    113.96298    602.31991   -422.43849            0   -9.1833921            0            0            0            0            0            0 
10120000    499.79878    62116.084    368.11779    -378.9812    560.71478    181.73359    634.50099    -378.9812            0   -8.4308203            0            0            0            0            0            0 
10121000    532.92756    56854.792    367.34412   -435.53953    559.53633    123.99681    565.88372   -435.53953            0    -9.211001            0            0            0            0            0            0 
10122000    539.40747    59467.212     383.3074   -402.67871    583.85151    181.17281     648.9838   -402.67871            0   -8.8063577            0            0            0            0            0            0 
10123000    505.29761    58412.428    360.20975   -415.60487     548.6693    133.06443    563.52006   -415.60487            0   -8.9653788            0            0            0            0            0            0 
10124000    338.53376    62194.271    348.08342   -409.63032    530.19855    120.56823    427.63177   -409.63032            0   -8.4202216            0            0            0            0            0            0 
10125000    554.11548    58936.152    370.22442   -405.50182    563.92359    158.42177    634.69695   -405.50182            0   -8.8857098            0            0            0            0            0            0 
10126000    447.24471    63122.451    359.43488   -388.27848    547.48903    159.21055    570.93339   -388.27848            0    -8.296407            0            0            0            0            0            0 
10127000    538.98227    59185.113    383.77424   -396.32894    584.56259    188.23366    653.45845   -396.32894            0   -8.8483323            0            0            0            0            0            0 
10128000    447.90713    58315.014     370.7582   -423.66269    564.73664    141.07394    522.00313   -423.66269            0   -8.9803553            0            0            0            0            0            0 
10129000     479.3824    60271.135    364.14757   -403.08009    554.66737    151.58728     572.9609   -403.08009            0   -8.6888947            0            0            0            0            0            0 
10130000    574.80299    59569.073    362.83486   -402.43349    552.66786    150.23437    649.59667   -402.43349            0   -8.7912992            0            0            0            0            0            0 
10131000    467.06147    60520.665    357.21841   -412.23183    544.11291    131.88108     544.1244   -412.23183            0   -8.6530699            0            0            0            0            0            0 
10132000    436.30669    62262.659    344.22679   -386.64217    524.32416    137.68199    533.86461   -386.64217            0   -8.4109731            0            0            0            0            0            0 
10133000    471.49226    58277.463     376.8911   -423.47885    574.07824    150.59939    551.32869   -423.47885            0   -8.9861418            0            0            0            0            0            0 
10134000    509.81744    59305.325    352.82465   -406.63623    537.42036    130.78413    571.72897   -406.63623            0   -8.8303968            0            0            0            0            0            0 
10135000    566.14971    60720.268    376.93625   -386.43972    574.14701    187.70729    689.05711   -386.43972            0    -8.624625            0            0            0            0            0            0 
10136000    521.50417    61029.346    363.39631   -394.40807    553.52306    159.11499    623.27998   -394.40807            0   -8.5809464            0            0            0            0            0            0 
10137000    549.01409     60242.22    356.27324   -397.19897    542.67324    145.47427    627.82212   -397.19897            0   -8.6930652            0            0            0            0            0            0 
10138000    592.72456    63551.021    355.89673   -364.37642    542.09974    177.72333    727.07613   -364.37642            0   -8.2404584            0            0            0            0            0            0 
10139000    524.65555    60580.561    365.89317   -401.29019    557.32625    156.03606    619.57204   -401.29019            0   -8.6445146            0            0            0            0            0            0 
10140000    467.40116    59857.978    357.75316   -405.32654    544.92744     139.6009    547.62679   -405.32654            0    -8.748868            0            0            0            0            0            0 
10141000    475.70487    59941.831    361.82109   -412.46617    551.12368    138.65752    554.51402   -412.46617            0    -8.736629            0            0            0            0            0            0 
10142000    456.17058    59559.264    360.29937   -410.19018    548.80582    138.61563    534.85031   -410.19018            0   -8.7927471            0            0            0            0            0            0 
10143000     462.8232    60681.221    375.20742   -406.62738    571.51366    164.88629    574.47249   -406.62738            0   -8.6301747            0            0            0            0            0            0 
10144000    583.53097    53595.445    351.67803     -449.918    535.67385    85.755851    541.86384     -449.918            0   -9.7711578            0            0            0            0            0            0 
10145000    468.77899     58983.82    348.29951   -419.63053     530.5277    110.89717    514.14954   -419.63053            0   -8.8785287            0            0            0            0            0            0 
10146000     542.0898    59694.427    348.98561   -398.87354    531.57277    132.69923    604.63285   -398.87354            0   -8.7728381            0            0            0            0            0            0 
10147000    467.77731    62170.165    358.61007   -388.25391    546.23268    157.97877    582.10688   -388.25391            0   -8.4234866            0            0            0            0            0            0 
10148000    420.25738    59884.426    360.08785   -420.71334    548.48363    127.77028     494.8033   -420.71334            0    -8.745004            0            0            0            0            0            0 
10149000    461.77076    59328.691    354.78161   -414.60697    540.40119    125.79422     525.3405   -414.60697            0   -8.8269189            0            0            0            0            0            0 
10150000    471.82556      61407.8      335.184   -392.43577    510.55024    118.11447    540.66718   -392.43577            0   -8.5280623            0            0            0            0            0            0 
10151000    582.60267    59627.587    362.83333   -401.46819    552.66552    151.19733     657.8328   -401.46819            0   -8.7826721            0            0            0            0            0            0 
10152000    486.58738    61174.724    359.55737   -394.82644     547.6756    152.84915    586.96811   -394.82644            0   -8.5605543            0            0            0            0            0            0 
10153000    573.51586    56900.474    368.41093   -422.16257    561.16129    138.99872    614.92228   -422.16257            0    -9.203606            0            0            0            0            0            0 
10154000    543.75659    61630.565    383.56882   -389.21273     584.2497    195.03697    683.77549   -389.21273            0   -8.4972375            0            0            0            0            0            0 
10155000    456.26503    60847.048    367.42414   -398.78372    559.65823     160.8745    565.76034   -398.78372            0   -8.6066549            0            0            0            0            0            0 
10156000    444.81307    58510.876    366.82517   -426.57848    558.74588     132.1674    511.73578   -426.57848            0   -8.9502941            0            0            0            0            0            0 
10157000    497.06474    58421.085    360.30667      -420.78    548.81694    128.03693    551.54186      -420.78            0   -8.9640502            0            0            0            0            0            0 
10158000    513.49718    60653.473    372.71753   -397.03617    567.72109    170.68492    624.90845   -397.03617            0    -8.634123            0            0            0            0            0            0 
10159000    432.55847    59882.468    342.06203   -414.45631    521.02681     106.5705    484.33436   -414.45631            0     -8.74529            0            0            0            0            0            0 
10160000    470.91338    59068.166    358.54648    -412.4443    546.13583    133.69153     539.3592    -412.4443            0   -8.8658507            0            0            0            0            0            0 
10161000    412.39115    65055.045    354.09464   -374.23495    539.35481    165.11986    556.38054   -374.23495            0   -8.0499452            0            0            0            0            0            0 
10162000    400.46226      61779.1    338.15166   -395.08124    515.07055    119.98932    480.79972   -395.08124            0   -8.4768076            0            0            0            0            0            0 
10163000    480.18518    59768.475    350.34958   -409.17724    533.65035    124.47311    543.03224   -409.17724            0   -8.7619693            0            0            0            0            0            0 
10164000    522.16592    57734.972     347.4145   -414.48508    529.17966    114.69458    554.36107   -414.48508            0   -9.0705776            0            0            0            0            0            0 
10165000    520.10468    61561.288     345.8819   -385.10379    526.84522    141.74143     608.6957   -385.10379            0   -8.5067996            0            0            0            0            0            0 
10166000    576.87989    58760.291    372.87839   -417.09036    567.96611    150.87575    645.23792   -417.09036            0   -8.9123034            0            0            0            0            0            0 
10167000    487.11678    61215.106    362.94153   -397.62285    552.83033    155.20748    590.08563   -397.62285            0   -8.5549072            0            0            0            0            0            0 
10168000     558.5007    61248.748    359.85379   -392.90912    548.12711    155.21799    654.09882   -392.90912            0   -8.5502082            0            0            0            0            0            0 
10169000    462.04312    61413.666    333.03811   -384.05825    507.28162    123.22338    537.05476   -384.05825            0   -8.5272478            0            0            0            0            0            0 
10170000    458.01413    59195.796    351.80845   -417.47217    535.87249    118.40033     513.8085   -417.47217            0   -8.8467354            0            0            0            0            0            0 
10171000    437.85397     59953.86    366.47658   -421.81793     558.2149    136.39697     519.2414   -421.81793            0   -8.7348762            0            0            0            0            0            0 
10172000    533.48086    60906.536    372.32195   -396.95098    567.11853    170.16755    644.03692   -396.95098            0   -8.5982488            0            0            0            0            0            0 
10173000    414.77556    61919.997    344.36078   -395.32683    524.52825    129.20142     503.7602   -395.32683            0   -8.4575189            0            0            0            0            0            0 
10174000    474.40188     58975.68    354.56891   -419.93852    540.07722     120.1387    528.17166   -419.93852            0   -8.8797542            0            0            0            0            0            0 
10175000    429.70479     62187.57     356.2952   -406.08143    542.70669    136.62526    526.34255   -406.08143            0   -8.4211289            0            0            0            0            0            0 
10176000    492.53673    61637.447    375.08587   -388.24714    571.32853    183.08139    625.83198   -388.24714            0   -8.4962887            0            0            0            0            0            0 
10177000     466.7539    59933.419    366.73846   -404.16046     558.6138    154.45334    562.42772   -404.16046            0   -8.7378554            0            0            0            0            0            0 
10178000    433.56604    59854.668    369.59903   -410.37655    562.97101    152.59445    531.06246   -410.37655            0   -8.7493518            0            0            0            0            0            0 
10179000    485.03127    59111.691    348.05209   -408.69416    530.15083    121.45667    539.59406   -408.69416            0   -8.8593226            0            0            0            0            0            0 
10180000    398.82705    61533.373    336.86973   -396.66817    513.11792    116.44975     474.3576   -396.66817            0   -8.5106588            0            0            0            0            0            0 
10181000    539.89784    58543.736    366.72216   -420.08089    558.58897    138.50808    599.47304   -420.08089            0   -8.9452704            0            0            0            0            0            0 
10182000     417.3115    63466.264    357.24151   -395.31791    544.14811     148.8302    535.08971   -395.31791            0   -8.2514632            0            0            0            0            0            0 
10183000    520.20665    59312.506    346.54365   -407.45772    527.85319    120.39548     570.3805   -407.45772            0   -8.8293276            0            0            0            0            0            0 
10184000    456.83146    62839.101    369.42079   -389.88041     562.6995     172.8191    591.47947   -389.88041            0   -8.3338166            0            0            0            0            0            0 
10185000     655.9455    57593.883    363.11109   -408.06486    553.08861    145.02375    695.98366   -408.06486            0   -9.0927981            0            0            0            0            0            0 
10186000    603.73425    58986.387    366.29492   -397.63813     557.9382    160.30007    679.66605   -397.63813            0   -8.8781424            0            0            0            0            0            0 
10187000    500.37176    58457.545    393.78818   -421.28859    599.81576    178.52717    605.11579   -421.28859            0   -8.9584594            0            0            0            0            0            0 
10188000    442.08141    63050.382    371.93519   -384.49886    566.52943    182.03057    588.53554   -384.49886            0   -8.3058901            0            0            0            0            0            0 
10189000    535.26566    60563.541    353.30116   -404.48289    538.14618    133.66329     606.4405   -404.48289            0    -8.646944            0            0            0            0            0            0 
10190000    459.93341    61224.278    354.78128   -395.23729     540.4007    145.16341    555.83487   -395.23729            0   -8.5536254            0            0            0            0            0            0 
10191000    512.71115    59262.638    338.59955   -402.82911    515.75278    112.92367    556.05212   -402.82911            0   -8.8367573            0            0            0            0            0            0 
10192000    414.28009    63364.926    354.90243   -380.38664    540.58523    160.19859    543.03998   -380.38664            0   -8.2646596            0            0            0            0            0            0 
10193000    454.36147    59995.165     358.7275   -408.86218    546.41155    137.54937    535.10109   -408.86218            0   -8.7288624            0            0            0            0            0            0 
10194000    472.88403     60016.45    366.51013   -407.14012    558.26601    151.12589    565.03105   -407.14012            0   -8.7257667            0            0            0            0            0            0 
10195000    611.69155    58997.199    354.55361   -397.38174     540.0539    142.67217    668.97992   -397.38174            0   -8.8765154            0            0            0            0            0            0 
10196000    407.36601    60731.964    356.70701   -415.73206    543.33396     127.6019    488.41143   -415.73206            0   -8.6229641            0            0            0            0            0            0 
10197000    399.42893    61307.829    356.79418   -407.90179    543.46674    135.56494    492.69907   -407.90179            0   -8.5419685            0            0            0            0            0            0 
10198000    466.37218    59304.273    357.90281   -406.52354    545.15539    138.63184    541.99341   -406.52354            0   -8.8305533            0            0            0            0            0            0 
10199000    530.52458    59907.321    365.91513    -403.3111     557.3597     154.0486    617.56093    -403.3111            0   -8.7416619            0            0            0            0            0            0 
10200000    377.21767    62506.896    349.30715   -394.21183    532.06254    137.85071    481.72195   -394.21183            0   -8.3781083            0            0            0            0            0            0 
10201000    522.19504    57072.545    363.87069   -423.80795    554.24563    130.43768    565.08387   -423.80795            0   -9.1758576            0            0            0            0            0            0 
10202000    412.16419    62925.176    375.56801    -392.4217    572.06291    179.64121    557.88394    -392.4217            0   -8.3224168            0            0            0            0            0            0 
10203000    510.21268    60449.555    344.03288   -397.57555    524.02879    126.45324    576.25407   -397.57555            0   -8.6632489            0            0            0            0            0            0 
10204000    497.32672    58892.218    356.86825   -416.77985    543.57956    126.79971    553.94497   -416.77985            0   -8.8923386            0            0            0            0            0            0 
10205000    479.34233    59634.254    365.07875   -402.26991    556.08573    153.81583    570.70198   -402.26991            0   -8.7816902            0            0            0            0            0            0 
10206000    422.30412    60547.388    362.55652   -411.28665     552.2439    140.95724    513.86088   -411.28665            0   -8.6492507            0            0            0            0            0            0 
10207000    489.63694     60006.17    336.44166    -397.1871     512.4659     115.2788    543.77401    -397.1871            0   -8.7272616            0            0            0            0            0            0 
10208000    469.74253    58598.581    367.09309   -420.46624    559.15397    138.68773    540.12978   -420.46624            0   -8.9368981            0            0            0            0            0            0 
10209000    570.75263    59896.971    361.92362   -387.12121    551.27986    164.15865    662.73155   -387.12121            0   -8.7431724            0            0            0            0            0            0 
10210000    491.42386    60257.532     368.5396   -411.98069    561.35729     149.3766    581.23709   -411.98069            0   -8.6908562            0            0            0            0            0            0 
10211000    500.24094    58044.211    390.61167   -426.43834    594.97733    168.53898    592.00058   -426.43834            0   -9.0222529            0            0            0            0            0            0 
10212000    410.83999    61437.433     359.4552   -408.92845    547.51998    138.59153    506.70496   -408.92845            0    -8.523949            0            0            0            0            0            0 
10213000    524.17254    60765.066    363.03029   -399.21339    552.96553    153.75215    618.27184   -399.21339            0   -8.6182667            0            0            0            0            0            0 
10214000    569.00422    58304.221    366.86517   -409.72601    558.80681    149.08079    632.90921   -409.72601            0   -8.9820177            0            0            0            0            0            0 
10215000    518.12555    62921.908    364.60277   -371.47834    555.36072    183.88238    659.34106   -371.47834            0   -8.3228491            0            0            0            0            0            0 
10216000    439.75106    60524.177    352.63877   -409.40265    537.13723    127.73459    515.89539   -409.40265            0   -8.6525679            0            0            0            0            0            0 
10217000    429.20496    58851.669    366.67673   -420.26833    558.51976    138.25143    506.63428   -420.26833            0   -8.8984654            0            0            0            0            0            0 
10218000    419.06459    60237.031    338.75966   -412.98482    515.99666    103.01184    471.15812   -412.98482            0   -8.6938141            0            0            0            0            0            0 
10219000    546.26821    60210.811    356.29125   -397.85476    542.70068    144.84592    624.53109   -397.85476            0   -8.6975999            0            0            0            0            0            0 
10220000    526.64673    60819.568    368.67741   -390.94305    561.56719    170.62414    637.75506   -390.94305            0   -8.6105437            0            0            0            0            0            0 
10221000    441.00667    57951.326      360.243   -426.63198    548.71996    122.08798    494.80946   -426.63198            0   -9.0367138            0            0            0            0            0            0 
10222000    421.88481    60212.515    353.62653   -401.79227    538.64178    136.84951     507.3225   -401.79227            0   -8.6973538            0            0            0            0            0            0 
10223000    432.09163    59810.282    363.09629   -412.71991    553.06606    140.34615    517.24742   -412.71991            0   -8.7558447            0            0            0            0            0            0 
10224000    576.69457    57080.744    372.17019    -422.2283    566.88738    144.65908    624.73661    -422.2283            0   -9.1745395            0            0            0            0            0            0 
10225000    450.79464    61320.388    378.32065   -403.53497    576.25572    172.72075    575.86413   -403.53497            0    -8.540219            0            0            0            0            0            0 
10226000    628.97204    58297.333    373.98633   -402.25405    569.65371    167.39967    702.15597   -402.25405            0    -8.983079            0            0            0            0            0            0 
10227000    394.14486    61471.347    371.06542   -403.27643     565.2046    161.92817    515.27767   -403.27643            0   -8.5192463            0            0            0            0            0            0 
10228000    522.26864    59530.207    357.52079    -400.3723    544.57351    144.20121    597.62806    -400.3723            0   -8.7970389            0            0            0            0            0            0 
10229000    400.58523    60191.439    364.93516   -422.57719    555.86702    133.28983    484.93572   -422.57719            0   -8.7003991            0            0            0            0            0            0 
10230000    483.98368    58165.104    363.43262    -417.8934    553.57836    135.68496    546.23785    -417.8934            0   -9.0035006            0            0            0            0            0            0 
10231000    580.16607    60231.033    365.48842   -389.11497    556.70974    167.59478    677.21719   -389.11497            0   -8.6946798            0            0            0            0            0            0 
10232000     512.3874    60921.263    368.75153   -401.51357     561.6801    160.16653    615.40948   -401.51357            0   -8.5961702            0            0            0            0            0            0 
10233000    481.70202    60159.385    359.60071   -402.84014    547.74162    144.90147    567.52896   -402.84014            0    -8.705035            0            0            0            0            0            0 
10234000    423.40333    60225.938    329.88057   -411.28952    502.47209    91.182567     463.0719   -411.28952            0   -8.6954154            0            0            0            0            0            0 
10235000    480.44397    58132.373     372.1132   -426.38288    566.80057    140.41769    547.73858   -426.38288            0   -9.0085699            0            0            0            0            0            0 
10236000    482.31598     62110.73    370.74501   -387.33344    564.71656    177.38312     614.2752   -387.33344            0    -8.431547            0            0            0            0            0            0 
10237000    597.77087    56445.262    375.33271   -431.23227    571.70451    140.47223    632.55497   -431.23227            0   -9.2778299            0            0            0            0            0            0 
10238000    466.86631     61589.88    371.59836   -396.97649    566.01637    169.03988    588.39097   -396.97649            0   -8.5028506            0            0            0            0            0            0 
10239000    593.55329     56869.46    385.41472   -430.91276    587.06136    156.14861    648.43146   -430.91276            0   -9.2086253            0            0            0            0            0            0 
10240000    460.89891    63048.075    353.13443   -384.96553    537.89223     152.9267    576.71933   -384.96553            0   -8.3061941            0            0            0            0            0            0 
10241000    522.44182     60926.03    374.96709   -393.64211    571.14759    177.50548    641.71785   -393.64211            0   -8.5954975            0            0            0            0            0            0 
10242000    615.35111     58775.39    367.30924   -407.57686    559.48321    151.90636    679.37226   -407.57686            0    -8.910014            0            0            0            0            0            0 
10243000    415.40551    59493.047    372.92963   -423.32492    568.04415    144.71924    505.14378   -423.32492            0   -8.8025336            0            0            0            0            0            0 
10244000    605.41837    58837.203    368.23204   -405.82283    560.88881    155.06598    674.56353   -405.82283            0   -8.9006532            0            0            0            0            0            0 
10245000     537.0111    60737.529    368.92298   -397.63832    561.94125    164.30293    639.98444   -397.63832            0    -8.622174            0            0            0            0            0            0 
10246000    450.63591    59523.529    345.19719   -411.32658    525.80227    114.47568    505.66804   -411.32658            0   -8.7980258            0            0            0            0            0            0 
10247000    424.35256     59459.51    348.17467   -416.84368    530.33754    113.49386    481.47371   -416.84368            0   -8.8074985            0            0            0            0            0            0 
10248000    396.53496    65551.135    364.87261   -378.07362    555.77175    177.69813    556.78399   -378.07362            0   -7.9890233            0            0            0            0            0            0 
10249000    477.75147    60128.024    351.86125   -405.08517    535.95292    130.86775    549.81067   -405.08517            0   -8.7095751            0            0            0            0            0            0 
10250000    447.21392     59711.61    346.29056   -408.25939    527.46768    119.20828    508.65674   -408.25939            0   -8.7703136            0            0            0            0            0            0 
10251000    437.70052    61345.935    343.20488   -401.85019     522.7676    120.91741    512.51386   -401.85019            0   -8.5366625            0            0            0            0            0            0 
10252000    459.44699    61524.001    363.70141   -392.27139    553.98778    161.71639    573.96184   -392.27139            0   -8.5119553            0            0            0            0            0            0 
10253000    516.52358    56806.421    369.77422   -424.07057    563.23785    139.16728    567.08816   -424.07057            0   -9.2188442            0            0            0            0            0            0 
10254000    413.41368    60260.736    372.85473   -414.14825    567.93006    153.78181    517.10671   -414.14825            0   -8.6903941            0            0            0            0            0            0 
10255000    513.27269    60233.348    354.98826   -400.79924    540.71597    139.91673    590.79682   -400.79924            0   -8.6943456            0            0            0            0            0            0 
10256000    480.07676    60072.033    365.56896   -409.74948    556.83242    147.08294     567.6729   -409.74948            0    -8.717693            0            0            0            0            0            0 
10257000    556.06566    60986.467    361.86212   -381.71521    551.18619    169.47098    664.04972   -381.71521            0   -8.5869795            0            0            0            0            0            0 
10258000    474.04855    61906.486    347.89313   -386.21457    529.90871    143.69414    571.68537   -386.21457            0   -8.4593647            0            0            0            0            0            0 
10259000    508.03648    57831.963    347.05942   -417.72262    528.63881    110.91619    539.40425   -417.72262            0   -9.0553652            0            0            0            0            0            0 
10260000    500.69822     61313.16    364.66264   -397.53001    555.45192    157.92191    605.64102   -397.53001            0   -8.5412258            0            0            0            0            0            0 
10261000     432.4334    59580.794    377.77676   -426.42281    575.42727    149.00446    524.75656   -426.42281            0   -8.7895698            0            0            0            0            0            0 
10262000    416.84548    60686.544     358.7462    -407.7661    546.44003    138.67393    507.60344    -407.7661            0   -8.6294178            0            0            0            0            0            0 
10263000    444.48634    59416.779    344.91376   -406.94894    525.37055     118.4216    503.58359   -406.94894            0   -8.8138326            0            0            0            0            0            0 
10264000    497.77863    58990.307    355.98716   -408.85107    542.23748    133.38642    561.63191   -408.85107            0   -8.8775524            0            0            0            0            0            0 
10265000    613.04954    59241.772     363.3656   -398.33922    553.47628    155.13706    684.79989   -398.33922            0   -8.8398697            0            0            0            0            0            0 
10266000    520.43967    62472.996    361.76115   -392.03074    551.03239    159.00165    633.17661   -392.03074            0   -8.3826546            0            0            0            0            0            0 
10267000    533.70455     58125.53    371.51768   -414.46271    565.89347    151.43076    603.85277   -414.46271            0   -9.0096305            0            0            0            0            0            0 
10268000    530.48479    59342.268    380.47242   -408.30933    579.53328    171.22395    630.32995   -408.30933            0   -8.8248995            0            0            0            0            0            0 
10269000    485.31294    62329.358      351.955   -383.71676    536.09572    152.37896    593.53315   -383.71676            0   -8.4019724            0            0            0            0            0            0 
10270000    492.63672    59000.443    368.50098   -415.17462    561.29845    146.12383    570.01849   -415.17462            0   -8.8760274            0            0            0            0            0            0 
10271000    508.18849    58188.226    340.02656   -415.37841    517.92639    102.54798    533.80466   -415.37841            0   -8.9999228            0            0            0            0            0            0 
10272000    488.02496    59983.407    349.80358   -408.30349    532.81869     124.5152    551.43771   -408.30349            0   -8.7305735            0            0            0            0            0            0 
10273000    481.12254    62587.305    346.93034   -394.94872    528.44219    133.49347    572.64848   -394.94872            0   -8.3673446            0            0            0            0            0            0 
10274000    531.77817    59719.097    374.74144   -410.42596    570.80389    160.37793    623.52576   -410.42596            0    -8.769214            0            0            0            0            0            0 
10275000    417.37519    60234.913    355.43321   -411.76782    541.39371    129.62589    496.27515   -411.76782            0   -8.6941197            0            0            0            0            0            0 
10276000    426.45255    62216.788    353.71716   -392.25326    538.77984    146.52658    533.47599   -392.25326            0   -8.4171743            0            0            0            0            0            0 
10277000    545.85841    59253.143    344.05453   -400.20183    524.06177    123.85994    595.56147   -400.20183            0   -8.8381733            0            0            0            0            0            0 
10278000    481.27522    63104.639    355.97117   -379.93434    542.21313    162.27879    605.20429   -379.93434            0   -8.2987488            0            0            0            0            0            0 
10279000    566.91208    59068.865    354.73686   -400.88841    540.33303    139.44462    627.81603   -400.88841            0   -8.8657459            0            0            0            0            0            0 
10280000    468.45786    60545.689    372.78853   -403.18153    567.82923     164.6477    578.29448   -403.18153            0   -8.6494935            0            0            0            0            0            0 
10281000    461.34948    62143.103    355.92611   -391.63345    542.14449    150.51105    568.62904   -391.63345            0   -8.4271547            0            0            0            0            0            0 
10282000     485.7245    59314.586    362.01776   -414.01838    551.42325    137.40487    557.57716   -414.01838            0   -8.8290179            0            0            0            0            0            0 
10283000    576.08501     56996.75    361.31532   -425.21876     550.3533    125.13454    603.99895   -425.21876            0   -9.1880597            0            0            0            0            0            0 
10284000    477.12608    62233.338    355.76843   -394.83879    541.90431    147.06551    580.10963   -394.83879            0   -8.4149358            0            0            0            0            0            0 
10285000    539.00381    58163.262    363.38616   -421.67888    553.50759    131.82871    589.03951   -421.67888            0   -9.0037856            0            0            0            0            0            0 
10286000    398.50533    62104.968    337.06322   -392.11391    513.41266    121.29875    482.23988   -392.11391            0   -8.4323293            0            0            0            0            0            0 
10287000    419.22515    59797.735    363.51364   -412.44359    553.70178    141.25819    506.85967   -412.44359            0    -8.757682            0            0            0            0            0            0 
10288000    545.11858    56399.199     362.0279   -421.38664     551.4387    130.05206    578.42543   -421.38664            0   -9.2854075            0            0            0            0            0            0 
10289000    486.63146    63854.707    363.77489   -380.33872    554.09971    173.76099    626.93917   -380.33872            0   -8.2012677            0            0            0            0            0            0 
10290000    450.93986    62743.246    358.86017   -390.51535    546.61363    156.09828    568.72894   -390.51535            0   -8.3465485            0            0            0            0            0            0 
10291000    456.88199    62641.703    360.64201   -396.59116    549.32772    152.73656    570.12795   -396.59116            0   -8.3600784            0            0            0            0            0            0 
10292000    624.77662    59812.872    395.34975   -389.17942    602.19434    213.01493    758.01344   -389.17942            0   -8.7554657            0            0            0            0            0            0 
10293000    477.56296    58108.575    366.73162   -419.62367    558.60338    138.97971    543.69233   -419.62367            0   -9.0122593            0            0            0            0            0            0 
10294000    539.26939    62549.653    354.38844   -369.49409    539.80233    170.30823    662.24192   -369.49409            0   -8.3723813            0            0            0            0            0            0 
10295000    506.23177    62704.807    359.36612   -387.78806     547.3843    159.59624    622.53774   -387.78806            0   -8.3516651            0            0            0            0            0            0 
10296000     547.8609    58595.864    399.90455   -414.20047    609.13219    194.93172    663.11205   -414.20047            0   -8.9373124            0            0            0            0            0            0 
10297000    361.91685    62049.284    364.56672   -403.92521    555.30581     151.3806    478.88826   -403.92521            0   -8.4398967            0            0            0            0            0            0 
10298000    384.07736     64221.04    351.32251    -384.2424    535.13232    150.88992      510.616    -384.2424            0   -8.1544856            0            0            0            0            0            0 
10299000    566.09244    56457.686     377.3111   -424.07534    574.71798    150.64265    616.75039   -424.07534            0   -9.2757883            0            0            0            0            0            0 
10300000    477.02971    57627.425    364.15025   -432.54675    554.67145     122.1247    523.03806   -432.54675            0   -9.0875056            0            0            0            0            0            0 
10301000     501.9385    59577.983    367.60477   -412.64454    559.93336    147.28882    583.41504   -412.64454            0   -8.7899844            0            0            0            0            0            0 
10302000    526.12659    60409.185     365.9827   -397.67425    557.46263    159.78838    623.30906   -397.67425            0   -8.6690385            0            0            0            0            0            0 
10303000    538.65234    58573.849    373.72862   -411.23601    569.26116    158.02515    618.16327   -411.23601            0   -8.9406715            0            0            0            0            0            0 
10304000    471.56061     61328.68    334.04391   -388.16474    508.81365    120.64891    542.42021   -388.16474            0   -8.5390643            0            0            0            0            0            0 
10305000    516.69204    58671.656    366.72691    -414.7095     558.5962     143.8867    586.00247    -414.7095            0   -8.9257673            0            0            0            0            0            0 
10306000    337.02108    63707.845    349.37775   -395.81245    532.17007    136.35762    449.48848   -395.81245            0   -8.2201735            0            0            0            0            0            0 
10307000    644.26871    57692.909    369.81599   -404.99215    563.30148    158.30933    700.39181   -404.99215            0   -9.0771908            0            0            0            0            0            0 
10308000    539.77671    59570.697     370.0062   -399.59033    563.59121    164.00087    632.94674   -399.59033            0   -8.7910595            0            0            0            0            0            0 
10309000    558.98094    59364.666    396.42343   -405.20745    603.82976    198.62231    682.57278   -405.20745            0   -8.8215698            0            0            0            0            0            0 
10310000    396.21507    62240.936    356.21994   -396.21803    542.59205    146.37402    506.02645   -396.21803            0   -8.4139086            0            0            0            0            0            0 
10311000    633.13636     58255.81    371.56377   -402.50065    565.96368    163.46303    701.37646   -402.50065            0   -8.9894818            0            0            0            0            0            0 
10312000    574.40074    57680.895    362.52914   -420.26667    552.20219    131.93553    615.13101   -420.26667            0   -9.0790815            0            0            0            0            0            0 
10313000    483.04517    58910.504    361.00145   -417.53913    549.87522    132.33608    547.34399   -417.53913            0   -8.8895784            0            0            0            0            0            0 
10314000    385.64363    60546.316    357.94667   -413.64511    545.22219    131.57709    472.10269   -413.64511            0   -8.6494039            0            0            0            0            0            0 
10315000    456.31213    60620.629    358.39437   -399.82036    545.90414    146.08377    549.50463   -399.82036            0   -8.6388009            0            0            0            0            0            0 
10316000      519.305    61508.383    354.59196   -382.59327    540.11233    157.51906    623.35469   -382.59327            0   -8.5141167            0            0            0            0            0            0 
10317000    419.90754    60453.899    368.56897   -417.88161    561.40203    143.52041     513.7353   -417.88161            0   -8.6626265            0            0            0            0            0            0 
10318000    383.48074    63961.836    354.79527   -388.01296    540.42201    152.40905    510.12669   -388.01296            0   -8.1875315            0            0            0            0            0            0 
10319000     560.0473    59340.947    379.59356   -403.17243    578.19461    175.02218    659.70215   -403.17243            0   -8.8250958            0            0            0            0            0            0 
10320000    485.97745    57716.595     352.2357   -431.63536    536.52328    104.88792    513.95328   -431.63536            0   -9.0734658            0            0            0            0            0            0 
10321000    536.39971    59802.006    351.31303    -398.7486    535.11787    136.36927    604.19077    -398.7486            0   -8.7570565            0            0            0            0            0            0 
10322000    537.88967    58400.656    361.64771   -415.79584     550.8596    135.06376    593.19175   -415.79584            0   -8.9671859            0            0            0            0            0            0 
10323000    558.94527    59440.413    366.50812   -399.09677    558.26295    159.16618    643.70324   -399.09677            0   -8.8103282            0            0            0            0            0            0 
10324000      561.294    60906.267    351.98082    -390.6479    536.13505    145.48714    644.05959    -390.6479            0   -8.5982867            0            0            0            0            0            0 
10325000    457.46166    60424.743    380.09102   -418.35858    578.95234    160.59376    563.72403   -418.35858            0   -8.6668063            0            0            0            0            0            0 
10326000    542.56816    60063.395    368.22933   -395.38029    560.88469     165.5044    640.77403   -395.38029            0   -8.7189469            0            0            0            0            0            0 
10327000    524.17019    59289.044    355.24954   -413.68122    541.11394    127.43272     580.6669   -413.68122            0   -8.8328216            0            0            0            0            0            0 
10328000    475.49181    62728.407    359.82638   -393.82314    548.08536    154.26222    589.25614   -393.82314            0    -8.348523            0            0            0            0            0            0 
10329000    572.88191    58023.908    371.87055   -422.60053    566.43097    143.83043     628.6141   -422.60053            0   -9.0254097            0            0            0            0            0            0 
10330000    578.00465     58801.48    385.77877   -414.81137    587.61588    172.80451    668.47776   -414.81137            0   -8.9060606            0            0            0            0            0            0 
10331000    429.79364    59567.748    360.61536   -418.64406    549.28713    130.64307    504.01963   -418.64406            0   -8.7914948            0            0            0            0            0            0 
10332000    530.75952    55438.557     356.1127   -441.77096    542.42871    100.65775    529.78451   -441.77096            0   -9.4463055            0            0            0            0            0            0 
10333000    534.68569    61849.786    365.81976   -387.42883    557.21444    169.78561    652.08048   -387.42883            0   -8.4671198            0            0            0            0            0            0 
10334000    583.61632    58635.231    361.20234   -408.94005    550.18122    141.24116    640.31172   -408.94005            0   -8.9313121            0            0            0            0            0            0 
10335000    556.83855    57960.563     366.1949   -424.39235    557.78585     133.3935    604.08655   -424.39235            0   -9.0352736            0            0            0            0            0            0 
10336000    426.35989    63529.738    336.39548   -381.08663    512.39556    131.30893    526.33821   -381.08663            0   -8.2432191            0            0            0            0            0            0 
10337000    559.71721    61249.552    346.18041   -386.69327     527.2999    140.60663    640.58069   -386.69327            0   -8.5500959            0            0            0            0            0            0 
10338000    469.30363     59670.52    356.46838   -409.67681    542.97047    133.29367    541.69733   -409.67681            0    -8.776353            0            0            0            0            0            0 
10339000    392.78661    59939.041    374.32526    -421.2265    570.16996    148.94347    492.29767    -421.2265            0   -8.7370357            0            0            0            0            0            0 
10340000    519.97371    57494.296    362.82884   -420.06277    552.65869    132.59592    568.59145   -420.06277            0   -9.1085478            0            0            0            0            0            0 
10341000    330.63857    60962.153     359.4147   -417.86013     547.4583    129.59817    423.55915   -417.86013            0   -8.5904044            0            0            0            0            0            0 
10342000    460.27054    60794.903    352.50985   -406.59831    536.94086    130.34255    538.43282   -406.59831            0   -8.6140371            0            0            0            0            0            0 
10343000    396.67357    62118.569    354.16724   -393.41045    539.46539    146.05494    505.41565   -393.41045            0    -8.430483            0            0            0            0            0            0 
10344000    546.31893    59691.594     367.0943   -401.77514    559.15582    157.38067    632.97353   -401.77514            0   -8.7732544            0            0            0            0            0            0 
10345000     555.5672    56322.411    374.42572   -431.15229    570.32298    139.17069    595.51615   -431.15229            0   -9.2980668            0            0            0            0            0            0 
10346000    484.00238    59736.854    353.55523   -410.91056    538.53318    127.62262    549.28585   -410.91056            0   -8.7666075            0            0            0            0            0            0 
10347000    461.43448    63606.737    365.56701   -386.40778    556.82945    170.42167     598.4663   -386.40778            0   -8.2332402            0            0            0            0            0            0 
10348000    474.99414    60061.726    359.56037   -410.52526    547.68018    137.15491    553.22064   -410.52526            0   -8.7191891            0            0            0            0            0            0 
10349000     457.6675    60185.387    330.30438   -401.76494    503.11763    101.35269    503.06674   -401.76494            0   -8.7012741            0            0            0            0            0            0 
10350000    550.70836    58868.788    346.96611   -405.68598    528.49667    122.81068    595.61633   -405.68598            0   -8.8958778            0            0            0            0            0            0 
10351000    474.85032    60927.076    351.87611    -394.6946    535.97556    141.28096    563.21344    -394.6946            0   -8.5953501            0            0            0            0            0            0 
10352000    536.76364    57936.593     386.8423   -414.93355    589.23585    174.30229    627.83847   -414.93355            0   -9.0390117            0            0            0            0            0            0 
10353000     459.0992    60542.948    349.38989   -390.32316    532.18856     141.8654    547.23016   -390.32316            0   -8.6498851            0            0            0            0            0            0 
[...]
14939000     434.5056    60836.633    365.32012   -412.15498    556.45339    144.29841    529.80911   -412.15498            0   -8.6081283            0            0            0            0            0            0 
14940000     503.9198    58317.487    347.88114   -408.17146    529.89045    121.71899    550.30315   -408.17146            0   -8.9799745            0            0            0            0            0            0 
14941000    359.35105    61779.939    344.97081   -405.87767    525.45745    119.57979    443.35402   -405.87767            0   -8.4766925            0            0            0            0            0            0 
14942000    599.84275    56249.018    362.84455   -434.52069    552.68262    118.16193    610.23347   -434.52069            0    -9.310199            0            0            0            0            0            0 
14943000    402.14239    60555.138    360.69993   -411.95597    549.41594    137.45998    492.60583   -411.95597            0   -8.6481439            0            0            0            0            0            0 
14944000    404.20443    60144.955    349.85466   -413.63484     532.8965    119.26166    473.81058   -413.63484            0   -8.7071235            0            0            0            0            0            0 
14945000    481.94273    59723.604     344.6311   -406.53383       524.94    118.40617     538.1819   -406.53383            0   -8.7685524            0            0            0            0            0            0 
14946000    430.46903    60143.044    352.09921   -409.31365    536.31538    127.00173    504.57671   -409.31365            0   -8.7074001            0            0            0            0            0            0 
14947000    436.62407    62051.535    355.64188   -400.15302    541.71156    141.55854    536.68498   -400.15302            0   -8.4395905            0            0            0            0            0            0 
14948000    534.79952    57199.287      367.728   -426.21805    560.12105      133.903    580.02898   -426.21805            0   -9.1555258            0            0            0            0            0            0 
14949000    509.52723    62417.054    371.39249   -378.26904    565.70278    187.43374    651.25063   -378.26904            0   -8.3901676            0            0            0            0            0            0 
14950000    449.91037    59722.124    340.60131   -408.40991    518.80185    110.39194    502.25754   -408.40991            0   -8.7687697            0            0            0            0            0            0 
14951000     463.6666    58065.248    351.11637   -423.55107    534.81833    111.26726    503.91037   -423.55107            0    -9.018984            0            0            0            0            0            0 
14952000    491.51876    62088.214       365.05   -387.56686    556.04195    168.47509    613.54185   -387.56686            0   -8.4346047            0            0            0            0            0            0 
14953000    514.72562    56649.514    342.66923   -434.79384    521.95169    87.157843    512.41131   -434.79384            0   -9.2443785            0            0            0            0            0            0 
14954000    530.95755    59393.453    372.10682   -411.01278    566.79086    155.77808    615.68958   -411.01278            0   -8.8172941            0            0            0            0            0            0 
14955000    489.29353    63708.085    354.58527    -375.2616    540.10214    164.84054    619.45151    -375.2616            0   -8.2201426            0            0            0            0            0            0 
14956000    470.36806    58368.067    363.07634   -420.26271    553.03568    132.77297    533.16832   -420.26271            0   -8.9721927            0            0            0            0            0            0 
14957000     562.6492    59037.311    362.68579   -399.17464     552.4408    153.26616    637.70634   -399.17464            0   -8.8704845            0            0            0            0            0            0 
14958000    523.19721    60411.972    359.27703   -396.98756    547.24859    150.26103    611.22218   -396.98756            0   -8.6686385            0            0            0            0            0            0 
14959000    528.76435    61299.797    332.24264   -379.98307    506.06998    126.08691    598.79941   -379.98307            0   -8.5430878            0            0            0            0            0            0 
14960000    544.20414    59330.923    368.00552   -395.74778    560.54377    164.79599    635.68531   -395.74778            0   -8.8265869            0            0            0            0            0            0 
14961000    495.22277    61374.502    371.52322   -395.92147    565.90191    169.98044    613.24649   -395.92147            0   -8.5326891            0            0            0            0            0            0 
14962000    397.84471    58938.619    356.38106   -423.73158    542.83747    119.10589    461.07701   -423.73158            0   -8.8853379            0            0            0            0            0            0 
14963000    466.77962    58256.954     351.4685   -421.32424    535.35469    114.03045    510.61478   -421.32424            0   -8.9893053            0            0            0            0            0            0 
14964000    439.42396    58104.375    364.44075   -431.11209    555.11394    124.00184    496.36651   -431.11209            0   -9.0129107            0            0            0            0            0            0 
14965000    490.67518    59010.207    344.42276   -411.59833    524.62267    113.02433    535.30104   -411.59833            0   -8.8745587            0            0            0            0            0            0 
14966000    506.54923    57640.877     351.7797   -422.30602    535.82871    113.52269    539.34472   -422.30602            0   -9.0853847            0            0            0            0            0            0 
14967000    568.74041    59514.228    359.28738   -393.64613    547.26437    153.61824    647.25873   -393.64613            0   -8.7994007            0            0            0            0            0            0 
14968000    451.58545    60420.834    355.68896   -408.89232    541.78326    132.89094    530.81715   -408.89232            0   -8.6673671            0            0            0            0            0            0 
14969000     414.6661    62364.821     339.8062   -393.20118    517.59074    124.38956    501.53955   -393.20118            0   -8.3971948            0            0            0            0            0            0 
14970000    519.33738    60260.604    372.21794   -404.17438    566.96011    162.78573    619.19972   -404.17438            0   -8.6904132            0            0            0            0            0            0 
14971000    513.92706    59595.687    375.95208   -415.33586    572.64792    157.31207    603.98764   -415.33586            0   -8.7873733            0            0            0            0            0            0 
14972000    488.03667    56694.908    366.43665   -438.63114    558.15409    119.52295    523.04977   -438.63114            0   -9.2369767            0            0            0            0            0            0 
14973000    390.77588    59135.177    348.55837   -422.70358      530.922    108.21842    445.23365   -422.70358            0   -8.8558041            0            0            0            0            0            0 
14974000    562.34142    60471.917    368.40467   -391.41398    561.15176    169.73778    665.67842   -391.41398            0   -8.6600454            0            0            0            0            0            0 
14975000    561.31097    62340.723    368.65656   -381.72563    561.53543     179.8098    690.13998   -381.72563            0   -8.4004406            0            0            0            0            0            0 
14976000    520.33735     58265.34    356.68457   -409.64028    543.29978     133.6595    575.81107   -409.64028            0   -8.9880116            0            0            0            0            0            0 
14977000    425.52477        60983    364.75116   -397.62582    555.58675    157.96093    536.41181   -397.62582            0   -8.5874678            0            0            0            0            0            0 
14978000     522.2248    61555.073    371.60814   -381.47776    566.03127    184.55351     653.3639   -381.47776            0   -8.5076586            0            0            0            0            0            0 
14979000    589.85844    58235.864    351.18085   -407.57371    534.91655    127.34283    628.31571   -407.57371            0   -8.9925607            0            0            0            0            0            0 
14980000    322.41367    62627.596    361.08774   -408.39463    550.00666    141.61202    436.09153   -408.39463            0   -8.3619615            0            0            0            0            0            0 
14981000    501.98884    58665.594    330.79327   -407.40525    503.86231    96.457055    525.94742   -407.40525            0   -8.9266895            0            0            0            0            0            0 
14982000    438.80905     59909.25    367.07302   -419.95317     559.1234    139.17022    522.56426   -419.95317            0   -8.7413804            0            0            0            0            0            0 
14983000    475.56611    59761.646    379.30658   -409.96429    577.75748    167.79319    582.27869   -409.96429            0   -8.7629706            0            0            0            0            0            0 
14984000    531.72294     57951.21    365.99069   -415.21501    557.47479    142.25979    591.65019   -415.21501            0   -9.0367319            0            0            0            0            0            0 
14985000    586.85092    58115.962    373.41294   -412.56634    568.78032    156.21398    653.60634   -412.56634            0   -9.0111138            0            0            0            0            0            0 
14986000    443.96608    58847.487    360.53485   -422.40372     549.1645    126.76079     507.7859   -422.40372            0   -8.8990978            0            0            0            0            0            0 
14987000    522.84548    60587.635    378.71302   -391.45028    576.85338     185.4031    647.39381   -391.45028            0   -8.6435054            0            0            0            0            0            0 
14988000    467.12401    61881.226    366.40522    -395.0989     558.1062     163.0073    584.57467    -395.0989            0   -8.4628178            0            0            0            0            0            0 
14989000    375.25597    61386.646    356.62488    -404.0813    543.20885    139.12756    475.07969    -404.0813            0   -8.5310011            0            0            0            0            0            0 
14990000    449.03657    61289.366    354.45747   -405.69108    539.90747    134.21639    535.58438   -405.69108            0   -8.5445418            0            0            0            0            0            0 
14991000    546.61431    57586.585    350.21168   -418.03926    533.44031    115.40105    574.47032   -418.03926            0   -9.0939503            0            0            0            0            0            0 
14992000     480.2956    59983.427    354.98241   -401.74265    540.70705     138.9644    559.12543   -401.74265            0   -8.7305707            0            0            0            0            0            0 
14993000    408.01209    60664.599    382.59011   -419.83027    582.75893    162.92866    523.90959   -419.83027            0   -8.6325395            0            0            0            0            0            0 
14994000    560.98585    57642.446    380.21229   -415.28635    579.13705    163.85069    635.44678   -415.28635            0   -9.0851375            0            0            0            0            0            0 
14995000    473.92121    58631.753    372.47407   -417.02726    567.35025    150.32299    555.56543   -417.02726            0   -8.9318418            0            0            0            0            0            0 
14996000    372.81083    63156.321    350.62189   -400.99228    534.06514    133.07286    476.45779   -400.99228            0   -8.2919578            0            0            0            0            0            0 
14997000    463.55242    59547.105    356.03251   -412.35248    542.30656    129.95408    532.51851   -412.35248            0   -8.7945424            0            0            0            0            0            0 
14998000    499.19577    59079.178    344.42726   -419.66722    524.62952     104.9623    535.07397   -419.66722            0   -8.8641983            0            0            0            0            0            0 
14999000    602.57881    59733.868     382.2152   -402.78363    582.18788    179.40425    704.34511   -402.78363            0   -8.7670456            0            0            0            0            0            0 
15000000    498.69428    61182.356    372.43363   -394.05093    567.28865    173.23772     618.2136   -394.05093            0   -8.5594864            0            0            0            0            0            0 
Loop time of 1414.67 on 8 procs for 5000000 steps with 512 atoms

Pair  time (%) = 777.956 (54.9919)
Bond  time (%) = 0.450191 (0.0318229)
Neigh time (%) = 31.4552 (2.22349)
Comm  time (%) = 441.023 (31.1748)
Outpt time (%) = 0.250078 (0.0176774)
Other time (%) = 163.54 (11.5603)

Nlocal:    64 ave 72 max 47 min
Histogram: 1 0 0 0 0 2 1 0 1 3
Nghost:    1226 ave 1242 max 1212 min
Histogram: 1 1 0 2 1 0 1 0 1 1
Neighs:    5409 ave 6253 max 3964 min
Histogram: 1 0 0 0 1 2 0 2 0 2

Total # of neighbors = 43272
Ave neighs/atom = 84.5156
Ave special neighs/atom = 0
Neighbor list builds = 88113
Dangerous builds = 0

Averages
Group Pressure(MPa) Volume(m3) Temperature(K) PE(J) KE(J) ET(J) ET^2(J) H(J) H^2(J^2) V^2(m6) V*H(m3*J) Hconf(J) Uext*Hconf(J^2) V*Hconf(m3*J) Uext(J)
Block1 49.6659822935997326 6.0064034733117495224e-26 360.06366704184461014 -2.8132193983958824221e-18 3.8104409641065300769e-18 9.9722156571064996586e-19 1.02117362113583578e-36 3.9751504427818544645e-18 1.5995439373247335137e-35 3.6112053755768920032e-51 2.387773476849154322e-43 1.647094786753277821e-19 -4.4323007824863537127e-37 9.91668037658087969e-45 -2.8132193983958824221e-18
Block2 49.856111221906331821 6.0135021962736164066e-26 360.39857993592630692 -2.8073398265522296719e-18 3.8139852423212747128e-18 1.0066454157690440779e-18 1.0444176114001751436e-36 3.9995195024134597485e-18 1.6186903059752552006e-35 3.6195256804912303054e-51 2.4052238637504257686e-43 1.8553426009218936913e-19 -5.0307688019097653918e-37 1.1156082686725310407e-44 -2.8073398265522296719e-18
Block3 49.991892314170449652 6.0167368306262762673e-26 360.43979184479724154 -2.8032133174336597357e-18 3.8144213750393025124e-18 1.0112080576056452804e-18 1.0514997007376534281e-36 4.0142293381590554742e-18 1.6328819307241148494e-35 3.6232701914567133636e-51 2.4153074455898088247e-43 1.9980796311974992839e-19 -5.4115152846495584634e-37 1.2026765618376665092e-44 -2.8032133174336597357e-18
Block4 50.325913635308559435 6.0115613354423010182e-26 360.36862138619932239 -2.805180844802185958e-18 3.8136682003768770034e-18 1.0084873555746995195e-18 1.047362711793854195e-36 4.0282685751469887685e-18 1.6444723874427958415e-35 3.6170824760787675129e-51 2.4210909664223290139e-43 2.146003747701012929e-19 -5.8356784387109923067e-37 1.2863162600905234386e-44 -2.805180844802185958e-18
Block5 50.066775737157321657 6.0110456961471608689e-26 360.54718408057988199 -2.8082390461914645348e-18 3.8155578734197601286e-18 1.0073188272282979049e-18 1.042923563713926806e-36 4.0117815843821170768e-18 1.6287180914000577933e-35 3.6165213509280540435e-51 2.4115330655790660134e-43 1.9622371096235889813e-19 -5.3244165037245322568e-37 1.1798955069072411217e-44 -2.8082390461914645348e-18
Ave_blocks 49.981335040428476191 6.0118499063602217351e-26 360.36356885786943849 -2.8074384866750845415e-18 3.8136147310527485787e-18 1.0061762443776673112e-18 1.0414754417562889369e-36 4.0057898885766952606e-18 1.6248613305733915466e-35 3.6175210149063318018e-51 2.4081857636381571071e-43 1.9217515752394545413e-19 -5.2069359622962415956e-37 1.1552329270332099412e-44 -2.8074384866750845415e-18
Stdev_blocks 0.21966990526406052209 3.3765589268665139741e-29 0.16168914412008011938 3.3769386025722741335e-21 1.7111055477179414171e-21 4.7407228714802304244e-21 1.0564686995300293819e-38 1.7835411175829313366e-20 1.5118532520617855459e-37 3.9534961648406354078e-54 1.1435920128316157654e-45 1.6589188696610978671e-20 4.6520232342384360301e-38 9.8351988410415586266e-46 3.3769386025722741335e-21






Properties
Group rho(kg/m3) Cp(J/K) Cp_conf(J/K) Cp_id(J/K) Cp2(J/K) kT(1/Pa) aP(1/K) aP2(1/K) Cv(J/K) uJT(K/Pa) sos(m/s) Cv2(J/K) uJT2(K/Pa) sos2(m/s) CvNVT(J/K)
Block1 227.07822111490614247 1.0816945731111535007e-19 4.8331606395716180336e-21 3.2703104590886680891e-20 3.7536265230458295916e-20 1.1779004240073774407e-08 0.00012811072177245302157 0.00021918076233675619314 1.0813932335300738879e-19 -5.2966337620604003347e-07 611.53099070216637756 3.744806086288215335e-20 -1.4738770384471759191e-06 612.16547401346861079 1.4929307174545876027e-20
Block2 226.81016344572174148 1.0636724743783476147e-19 2.8178373011915497424e-21 3.2717582116593127031e-20 3.5535419417784673764e-20 1.1044683147742008405e-08 0.00010379576646295592026 -9.4967167573288111709e-06 1.0634610687409207379e-19 -5.4420417624766038708e-07 631.88096984162666558 3.5535242445908870703e-20 -1.6980477864613828736e-06 631.81974661402523452 1.7332780351317627478e-20
Block3 226.68822892093425025 1.1974281414824382518e-19 3.6325002236045659843e-21 3.2719364695108302545e-20 3.6351864918712871538e-20 1.0547092638828162173e-08 4.7529767522177065369e-05 4.4905710134549123736e-05 1.1973816907714480276e-19 -4.9386348789315870837e-07 646.73677810004880939 3.6347718586239516222e-20 -1.628348673694651505e-06 646.76112003397349781 1.6144305168575281636e-20
Block4 226.88339017299153966 1.2145997323334644565e-19 2.1498906904512560105e-21 3.2716286439028118326e-20 3.4866177129479377346e-20 1.0683715541415484265e-08 -0.00048929597572791117075 -0.00034949226941199083851 1.2097451125387652846e-19 -5.8221331844193768235e-07 643.58682184972417417 3.4618499328966743873e-20 -1.9413352082407637942e-06 644.59292972264654509 1.690807816362848803e-20
Block5 226.90285267540818381 1.0741768555751825072e-19 3.4029826773452818238e-21 3.2724010946269018644e-20 3.6126993623614300468e-20 1.0875874950839388066e-08 3.042423222516866239e-05 3.5761861575775904859e-05 1.0741584102130209e-19 -5.5345712146091220358e-07 636.5780332029434021 3.6124445102901274389e-20 -1.6424118501559596652e-06 636.59502182228459333 1.5730390418820003015e-20
Ave_blocks 226.87257126599237722 1.1263143553761171458e-19 3.3672743064328542437e-21 3.2716069757577049487e-20 3.6083344064009902603e-20 1.0986074103779764125e-08 -3.5887097549031302265e-05 -1.1828130424447691349e-05 1.1252279031588460324e-19 -5.406802960499418665e-07 634.06271873930199945 3.6014793265379705689e-20 -1.6768041113999864973e-06 634.38685844127974178 1.6208972255377453432e-20
Stdev_blocks 0.12743838438679314096 6.5551090713550205067e-21 8.9491301340015944437e-22 6.9906912266257416442e-24 8.9069696461067035722e-22 4.3091588534010463344e-10 0.00022949586658018686532 0.00018594146970796936527 6.4333569702655660649e-21 2.9030477078685124709e-08 12.410527178010141824 9.3345857391859197085e-22 1.5174857425345862933e-07 12.349430881657371017 8.5117082104006037129e-22






