LAMMPS (28 Oct 2012)
Scanning data file ...
Reading data file ...
  orthogonal box = (0 0 0) to (100 100 100)
  2 by 2 by 2 MPI processor grid
  512 atoms
Finding 1-2 1-3 1-4 neighbors ...
  0 = max # of 1-2 neighbors
  0 = max # of 1-3 neighbors
  0 = max # of 1-4 neighbors
  1 = max # of special neighbors
WARNING: Resetting reneighboring criteria during minimization (min.cpp:173)
Setting up minimization ...
Memory usage per processor = 4.05499 Mbytes
Step Temp E_pair E_mol TotEng Press 
       0       340.15    1409.7233            0    1927.8378    436.20065 
     701       340.15   -217.27527            0    300.83915    23.455756 
Loop time of 0.0546787 on 8 procs for 701 steps with 512 atoms

Minimization stats:
  Stopping criterion = energy tolerance
  Energy initial, next-to-last, final = 
         1409.72334813     -217.256630745     -217.275265106
  Force two-norm initial, final = 5034.49 0.337455
  Force max component initial, final = 2457.89 0.147661
  Final line search alpha, max atom move = 0.254892 0.0376377
  Iterations, force evaluations = 701 710

Pair  time (%) = 0.00895292 (16.3737)
Bond  time (%) = 5.80847e-05 (0.106229)
Neigh time (%) = 0.00315022 (5.76134)
Comm  time (%) = 0.0224389 (41.0377)
Outpt time (%) = 0 (0)
Other time (%) = 0.0200786 (36.721)

Nlocal:    64 ave 74 max 52 min
Histogram: 1 0 0 1 1 2 0 2 0 1
Nghost:    235.125 ave 266 max 224 min
Histogram: 4 0 2 0 0 1 0 0 0 1
Neighs:    316.25 ave 371 max 226 min
Histogram: 1 0 0 1 1 1 0 1 0 3

Total # of neighbors = 2530
Ave neighs/atom = 4.94141
Ave special neighs/atom = 0
Neighbor list builds = 60
Dangerous builds = 0
Setting up run ...
Memory usage per processor = 3.36354 Mbytes
Step Temp E_pair E_mol TotEng Press Volume 
     701       340.15   -217.27527            0    300.83915    23.455756      1000000 
 5000701    334.11545    -441.9322            0    66.990434    432.46313    56264.914 
Loop time of 1464.18 on 8 procs for 5000000 steps with 512 atoms

Pair  time (%) = 820.83 (56.0606)
Bond  time (%) = 0.451217 (0.030817)
Neigh time (%) = 32.0803 (2.191)
Comm  time (%) = 452.139 (30.88)
Outpt time (%) = 4.47631e-05 (3.0572e-06)
Other time (%) = 158.683 (10.8376)

Nlocal:    64 ave 72 max 58 min
Histogram: 2 1 1 1 0 0 0 1 1 1
Nghost:    1295.25 ave 1324 max 1266 min
Histogram: 2 0 0 0 1 1 2 1 0 1
Neighs:    5882.75 ave 6613 max 5047 min
Histogram: 1 1 1 0 0 1 1 0 1 2

Total # of neighbors = 47062
Ave neighs/atom = 91.918
Ave special neighs/atom = 0
Neighbor list builds = 85603
Dangerous builds = 11
Setting up run ...
Memory usage per processor = 3.96688 Mbytes
Step Press Volume Temp PotEng KinEng TotEng Enthalpy E_vdwl E_coul E_tail E_long E_bond E_angle E_dihed E_impro E_mol 
10000000    432.46313    56264.914    334.11545    -441.9322    508.92263    66.990434      421.855    -441.9322            0   -9.3075686            0            0            0            0            0            0 
10001000    497.33049    56034.506     337.3388   -440.10706    513.83242    73.725365    480.14672   -440.10706            0   -9.3458403            0            0            0            0            0            0 
10002000    367.45511    57038.738    335.65585   -438.91406    511.26895     72.35489    378.02297   -438.91406            0   -9.1812961            0            0            0            0            0            0 
10003000    395.91415    58318.975     325.7834   -420.56618     496.2313    75.665125    412.39899   -420.56618            0   -8.9797454            0            0            0            0            0            0 
10004000    539.81942    55473.107    345.07689   -443.16272    525.61903    82.456303    519.18013   -443.16272            0    -9.440422            0            0            0            0            0            0 
10005000    542.88677    55198.449     336.5505   -439.13972    512.63168    73.491961    510.52273   -439.13972            0    -9.487396            0            0            0            0            0            0 
10006000    520.43311    56130.765    342.91841   -435.50735    522.33125      86.8239    512.85546   -435.50735            0    -9.329813            0            0            0            0            0            0 
10007000    512.66042    56541.426    339.82981   -427.43271     517.6267    90.193984    512.93311   -427.43271            0   -9.2620505            0            0            0            0            0            0 
10008000    541.86602    57105.379    353.42285   -418.37689    538.33155    119.95465    571.23334   -418.37689            0   -9.1705817            0            0            0            0            0            0 
10009000    483.50139    56715.442    321.38167   -430.87781    489.52661    58.648798    458.57047   -430.87781            0   -9.2336325            0            0            0            0            0            0 
10010000    482.96085    56102.654    340.64332   -439.73039    518.86584    79.135449    474.29386   -439.73039            0   -9.3344879            0            0            0            0            0            0 
10011000    491.96302    55466.761    351.13922   -446.52785    534.85313    88.325281    486.28687   -446.52785            0   -9.4415021            0            0            0            0            0            0 
10012000     539.9704    55288.314     344.2954   -442.79427    524.42866    81.634394    517.02513   -442.79427            0   -9.4719753            0            0            0            0            0            0 
10013000    409.10121    56188.221     339.1707    -442.6956    516.62275    73.927152    409.16414    -442.6956            0   -9.3202728            0            0            0            0            0            0 
10014000     335.5389    57382.463    333.90602   -438.06353    508.60362    70.540089    351.34064   -438.06353            0   -9.1262995            0            0            0            0            0            0 
10015000    426.90057    59057.817    332.36114   -425.11543    506.25048    81.135047    448.82352   -425.11543            0   -8.8674043            0            0            0            0            0            0 
10016000    629.26774    56312.417    328.91098   -421.27914    500.99521    79.716067    596.50777   -421.27914            0    -9.299717            0            0            0            0            0            0 
10017000    459.13337    57643.103    368.87404   -429.90593     561.8667    131.96077    517.93837   -429.90593            0   -9.0850339            0            0            0            0            0            0 
10018000    490.58093     56540.56     345.1331   -433.32465    525.70465    92.379995     496.9062   -433.32465            0   -9.2621924            0            0            0            0            0            0 
10019000    538.65852    57070.724    340.90631   -429.91822    519.26643     89.34821    537.68337   -429.91822            0   -9.1761503            0            0            0            0            0            0 
10020000    503.36025    58398.151    349.10479   -418.44936    531.75429    113.30493    542.00534   -418.44936            0   -8.9675706            0            0            0            0            0            0 
10021000    515.30161    55082.443    348.79748   -441.92657    531.28621    89.359637    503.31221   -441.92657            0   -9.5073769            0            0            0            0            0            0 
10022000    454.61592    58228.473    372.77879   -416.60512    567.81439    151.20927    537.27027   -416.60512            0   -8.9937022            0            0            0            0            0            0 
10023000    425.08478    58122.573    343.50817     -427.973    523.22956    95.256556    455.58311     -427.973            0   -9.0100889            0            0            0            0            0            0 
10024000    469.06346    57200.617    328.04895   -422.27436    499.68218    77.407816    468.70634   -422.27436            0   -9.1553128            0            0            0            0            0            0 
10025000    288.44065    58558.686    321.28066   -434.97702    489.37275    54.395731    300.72935   -434.97702            0   -8.9429867            0            0            0            0            0            0 
10026000    504.19203    55168.567    330.08833   -439.95922    502.78854    62.829319    468.49061   -439.95922            0   -9.4925349            0            0            0            0            0            0 
10027000    495.20758    57261.123    335.99205   -430.52559    511.78105     81.25546    494.80071   -430.52559            0   -9.1456387            0            0            0            0            0            0 
10028000    587.84218    54257.795    332.39357   -441.22874    506.29988    65.071135    530.22729   -441.22874            0   -9.6518767            0            0            0            0            0            0 
10029000    453.77239    56644.131    334.82187   -431.39192    509.99865    78.606726    453.46653   -431.39192            0    -9.245257            0            0            0            0            0            0 
10030000    481.37168    57337.023    346.59813   -437.87613    527.93617    90.060045    492.58384   -437.87613            0   -9.1335322            0            0            0            0            0            0 
10031000    532.79401    56826.931    329.17269   -434.32211    501.39384    67.071734    508.63142   -434.32211            0   -9.2155169            0            0            0            0            0            0 
10032000    527.48805    55601.748    324.46159    -439.4677    494.21792    54.750224    482.48737    -439.4677            0   -9.4185805            0            0            0            0            0            0 
10033000    395.53562     57629.61    334.95978   -434.91694     510.2087    75.291761    407.72709   -434.91694            0    -9.087161            0            0            0            0            0            0 
10034000    488.77314    61881.517    354.72241   -388.82364    540.31103    151.48739    592.59462   -388.82364            0    -8.462778            0            0            0            0            0            0 
10035000    414.19169    55440.769    335.45088   -446.17124    510.95675     64.78551    399.67885   -446.17124            0   -9.4459286            0            0            0            0            0            0 
10036000    416.54212      57647.6    362.96131   -431.41215    552.86047    121.44831    471.64824   -431.41215            0   -9.0843252            0            0            0            0            0            0 
10037000    519.58094    55220.149    339.70914    -440.2766     517.4429    77.166302    495.60002    -440.2766            0   -9.4836678            0            0            0            0            0            0 
10038000    472.87421     59957.79    329.46292   -399.28419    501.83591    102.55173    516.04375   -399.28419            0   -8.7343037            0            0            0            0            0            0 
10039000    617.54697    55713.266    331.72208   -435.34176    505.27706    69.935302    571.70509   -435.34176            0   -9.3997279            0            0            0            0            0            0 
10040000    539.39501    56189.147    346.74445   -433.16258    528.15904    94.996452    537.00967   -433.16258            0   -9.3201191            0            0            0            0            0            0 
10041000    530.13554    56251.121     342.6717    -426.0385    521.95545    95.916952    530.82154    -426.0385            0   -9.3098508            0            0            0            0            0            0 
10042000    510.69242     57537.38    339.04772     -410.852    516.43544    105.58344    534.11754     -410.852            0   -9.1017274            0            0            0            0            0            0 
10043000    440.48773    56228.918    346.43023   -445.33862    527.68042    82.341806    443.55985   -445.33862            0   -9.3135269            0            0            0            0            0            0 
10044000    487.57609    57770.372     352.1198     -434.898    536.34675    101.44875    512.24215     -434.898            0   -9.0650194            0            0            0            0            0            0 
10045000    532.38999    57504.726    326.17071   -419.04255    496.82125    77.778705    524.26621   -419.04255            0   -9.1068957            0            0            0            0            0            0 
10046000    403.56824    55494.789    328.67565   -451.71228    500.63676    48.924471     375.5462   -451.71228            0   -9.4367337            0            0            0            0            0            0 
10047000    478.74171    54599.904    328.07344   -454.29832    499.71948    45.421163    426.63534   -454.29832            0   -9.5914004            0            0            0            0            0            0 
10048000    435.58602    58933.605    317.95007   -416.76998    484.29961    67.529627    441.90979   -416.76998            0   -8.8860939            0            0            0            0            0            0 
10049000     582.5316    55338.137    356.17883   -440.49805    542.52944    102.03139    572.16349   -440.49805            0   -9.4634474            0            0            0            0            0            0 
10050000    555.47607    54782.613    348.89295   -440.03179    531.43163     91.39984    535.19646   -440.03179            0   -9.5594115            0            0            0            0            0            0 
10051000    338.05309    60324.707    322.81973   -414.88704    491.71705    76.830007    374.24032   -414.88704            0   -8.6811784            0            0            0            0            0            0 
10052000    467.24136    57607.936    332.42447   -425.39035    506.34694    80.956594    473.51067   -425.39035            0   -9.0905798            0            0            0            0            0            0 
10053000    603.34122    53050.272     352.1616    -453.9621    536.41041    82.448311    549.24364    -453.9621            0   -9.8715713            0            0            0            0            0            0 
10054000    387.36589    57386.125     342.4431   -432.06561    521.60725    89.541645    413.73505   -432.06561            0   -9.1257171            0            0            0            0            0            0 
10055000    422.84042    56533.714    356.64633   -448.69407    543.24153    94.547458    443.17357   -448.69407            0    -9.263314            0            0            0            0            0            0 
10056000    530.33392    57632.956     337.8336   -416.53464    514.58608    98.051445    543.80641   -416.53464            0   -9.0866334            0            0            0            0            0            0 
10057000    363.27717    58523.307    342.19018    -432.3074      521.222    88.914604    398.97255    -432.3074            0   -8.9483929            0            0            0            0            0            0 
10058000    510.87604    56816.996    341.86729   -429.81515    520.73019    90.915043    514.23593   -429.81515            0   -9.2171284            0            0            0            0            0            0 
10059000    492.06897    57897.732    349.75264   -424.06326     532.7411    108.67783    524.17055   -424.06326            0   -9.0450788            0            0            0            0            0            0 
10060000    534.04364    54868.684    331.17739   -440.08148    504.44739    64.365903    491.70948   -440.08148            0   -9.5444159            0            0            0            0            0            0 
10061000    580.60409    55309.866    360.88679   -432.62461    549.70057    117.07596    585.41309   -432.62461            0   -9.4682844            0            0            0            0            0            0 
10062000    438.52388    55899.277    343.03918   -445.82726     522.5152     76.68794    434.18735   -445.82726            0   -9.3684494            0            0            0            0            0            0 
10063000    490.48997    56610.536    335.83595   -435.94239    511.54329      75.6009    480.55266   -435.94239            0   -9.2507435            0            0            0            0            0            0 
10064000    495.64595     55208.21    368.53498   -453.02299    561.35025    108.32726    507.39913   -453.02299            0   -9.4857186            0            0            0            0            0            0 
10065000    474.50434    56237.718    361.89688   -444.82384    551.23913    106.41528    495.58924   -444.82384            0   -9.3120696            0            0            0            0            0            0 
10066000    457.48054    54978.583    331.01523   -455.77456    504.20039    48.425827    415.23658   -455.77456            0   -9.5253373            0            0            0            0            0            0 
10067000    435.78739    59688.874     342.0986   -407.95936    521.08252    113.12316    492.47653   -407.95936            0   -8.7736542            0            0            0            0            0            0 
10068000    463.03704    55212.892     345.8751   -456.95572    526.83486    69.879138     442.7274   -456.95572            0   -9.4849142            0            0            0            0            0            0 
10069000    394.99176    56196.597    329.38317   -446.07476    501.71444    55.639686    379.36297   -446.07476            0   -9.3188835            0            0            0            0            0            0 
10070000    401.78132    57018.571    324.58447   -431.95691     494.4051    62.448184     396.5524   -431.95691            0   -9.1845435            0            0            0            0            0            0 
10071000     475.1193    54790.753    331.43974   -453.69806      504.847    51.148933    430.80105   -453.69806            0   -9.5579914            0            0            0            0            0            0 
10072000    521.69861    57144.222    329.54285   -421.37517    501.95767    80.582507    515.36083   -421.37517            0   -9.1643482            0            0            0            0            0            0 
10073000    491.95054    56405.132    340.37596   -437.98098     518.4586    80.477626    485.16155   -437.98098            0   -9.2844308            0            0            0            0            0            0 
10074000    526.07601    57720.281    356.58448   -429.96751    543.14732    113.17982    556.02592   -429.96751            0   -9.0728863            0            0            0            0            0            0 
10075000    476.05813    58216.173    343.72697   -413.87771    523.56284    109.68513    513.86951   -413.87771            0   -8.9956024            0            0            0            0            0            0 
10076000    448.27582    55622.026     352.3068   -446.61945    536.63158    90.012132    453.64908   -446.61945            0   -9.4151469            0            0            0            0            0            0 
10077000     451.3826    56015.275    330.01082   -445.82075    502.67048    56.849738    425.59561   -445.82075            0   -9.3490489            0            0            0            0            0            0 
10078000    480.50053    56393.657    324.64874   -428.48472    494.50299    66.018275    461.20288   -428.48472            0   -9.2863201            0            0            0            0            0            0 
10079000    402.96208    57843.173    322.92864    -429.0781    491.88294    62.804836    402.73694    -429.0781            0   -9.0536103            0            0            0            0            0            0 
10080000    643.85003    52348.579    355.08157   -463.62245    540.85809    77.235645    568.78316   -463.62245            0   -10.003892            0            0            0            0            0            0 
10081000    419.99414    58892.963    338.70978   -418.66804    515.92068    97.252641    457.98286   -418.66804            0   -8.8922261            0            0            0            0            0            0 
10082000    493.56533     56124.33    321.69465   -440.44182    490.00333    49.561518    453.55253   -440.44182            0   -9.3308827            0            0            0            0            0            0 
10083000    427.71948    57708.737    328.11163   -429.27801    499.77765    70.499637    430.47807   -429.27801            0   -9.0747013            0            0            0            0            0            0 
10084000    466.06406    57093.123    322.46026   -434.60705    491.16951    56.562462     444.6282   -434.60705            0   -9.1725503            0            0            0            0            0            0 
10085000    597.35009    55858.184    346.57239   -430.27609    527.89696    97.620871    584.24275   -430.27609            0   -9.3753414            0            0            0            0            0            0 
10086000    563.43266    57240.993    347.20688    -413.5706    528.86341    115.29281    585.64705    -413.5706            0    -9.148855            0            0            0            0            0            0 
10087000    520.32596    57199.007    345.99114    -418.5784    527.01161    108.43321    542.48333    -418.5784            0   -9.1555705            0            0            0            0            0            0 
10088000    489.86206    58969.858    343.05164   -415.95112    522.53417    106.58306    527.87173   -415.95112            0   -8.8806309            0            0            0            0            0            0 
10089000    513.96511    58575.504    337.99541   -413.79451    514.83255    101.03805    540.09976   -413.79451            0   -8.9404189            0            0            0            0            0            0 
10090000    566.55124    56326.358    341.30261   -427.72368    519.87006    92.146381    557.54678   -427.72368            0   -9.2974154            0            0            0            0            0            0 
10091000    718.34473    54952.125    345.76089   -421.65148    526.66089    105.00941    680.70551   -421.65148            0   -9.5299234            0            0            0            0            0            0 
10092000    524.35642    55669.491      360.786   -445.13384    549.54704     104.4132    530.12896   -445.13384            0   -9.4071193            0            0            0            0            0            0 
10093000    368.82594    60284.766    332.16872   -412.38394    505.95738    93.573436    417.84206   -412.38394            0     -8.68693            0            0            0            0            0            0 
10094000    376.35286    56836.706    344.33636    -445.6944    524.49106    78.796654    390.75745    -445.6944            0    -9.213932            0            0            0            0            0            0 
10095000    460.82032    53559.785    346.87092   -463.97207    528.35168    64.379611    424.33305   -463.97207            0   -9.7776634            0            0            0            0            0            0 
10096000    461.90599     58592.72    336.41991   -416.26654    512.43276    96.166226    490.87169   -416.26654            0    -8.937792            0            0            0            0            0            0 
10097000    451.31226    57742.606    330.04476   -433.43348    502.72217    69.288691    449.34627   -433.43348            0   -9.0693784            0            0            0            0            0            0 
10098000    434.53589    56966.088    344.46988   -435.37377    524.69443    89.320654    450.32958   -435.37377            0   -9.1930053            0            0            0            0            0            0 
10099000    436.10477    58350.799    349.12409   -424.73652     531.7837    107.04717    478.16647   -424.73652            0   -8.9748479            0            0            0            0            0            0 
10100000    462.82851    57113.811     321.7779   -430.04616    490.13014    60.083981     445.5953   -430.04616            0   -9.1692279            0            0            0            0            0            0 
10101000     392.7058    57149.165    327.18276    -443.6276    498.36279    54.735193    382.04054    -443.6276            0   -9.1635554            0            0            0            0            0            0 
10102000    462.54712    59936.322    324.39457   -412.02417    494.11584    82.091666    486.40862   -412.02417            0   -8.7374321            0            0            0            0            0            0 
10103000    526.05588    54784.077    352.54892    -447.7458    537.00037    89.254574    509.55721    -447.7458            0   -9.5591561            0            0            0            0            0            0 
10104000    452.55909    55400.913    346.59569   -446.42466    527.93246    81.507796    447.15993   -446.42466            0   -9.4527241            0            0            0            0            0            0 
10105000    472.24398    60026.947    314.20181   -393.85504    478.59029    84.735251    498.15248   -393.85504            0   -8.7242409            0            0            0            0            0            0 
10106000    624.13317    54463.506    321.43331   -432.25836    489.60527    57.346904    553.09237   -432.25836            0    -9.615421            0            0            0            0            0            0 
10107000     516.0181    55050.915    340.41819   -451.88612    518.52292    66.636796    480.92767   -451.88612            0   -9.5128218            0            0            0            0            0            0 
10108000    405.12652    56766.633    329.68735   -443.64303    502.17777     58.53474    393.93215   -443.64303            0   -9.2253057            0            0            0            0            0            0 
10109000    495.29276    56790.771    348.40316   -439.11799    530.68558    91.567591    501.78646   -439.11799            0   -9.2213847            0            0            0            0            0            0 
10110000    470.91716    58782.712    369.82964   -424.47584    563.32226    138.84642     542.5569   -424.47584            0   -8.9089041            0            0            0            0            0            0 
10111000    442.48313    56057.077    338.95575   -444.24711    516.29534    72.048232    433.79367   -444.24711            0   -9.3420772            0            0            0            0            0            0 
10112000    393.30026    54889.326    339.00351   -466.50246    516.36808    49.865626    364.70426   -466.50246            0   -9.5408267            0            0            0            0            0            0 
10113000    497.77181    59575.402    337.94674   -404.76721    514.75842    109.99121    542.47831   -404.76721            0   -8.7903653            0            0            0            0            0            0 
10114000    533.22081    57462.278    323.93418   -426.56749    493.41458    66.847093    513.70127   -426.56749            0   -9.1136231            0            0            0            0            0            0 
10115000    551.05054    55231.473    324.23532   -435.71464    493.87328     58.15864    502.02675   -435.71464            0   -9.4817234            0            0            0            0            0            0 
10116000    643.94572    55326.051    348.59465   -436.79738    530.97726    94.179883    613.76275   -436.79738            0   -9.4655146            0            0            0            0            0            0 
10117000    385.92475    58345.079    338.83541   -435.16894    516.11204    80.943105    409.32768   -435.16894            0   -8.9757278            0            0            0            0            0            0 
10118000    481.65181    57136.225    330.33391   -426.70274     503.1626    76.459859    477.80742   -426.70274            0   -9.1656308            0            0            0            0            0            0 
10119000    556.28746    55170.832    331.47448   -435.69233    504.89992    69.207588    516.80204   -435.69233            0   -9.4921451            0            0            0            0            0            0 
10120000    469.61375    55981.208    350.95542   -441.84611    534.57317     92.72706    476.13311   -441.84611            0   -9.3547381            0            0            0            0            0            0 
10121000    477.70622    57125.917    346.34164   -427.69805    527.54548    99.847438    497.83543   -427.69805            0   -9.1672846            0            0            0            0            0            0 
10122000    516.51253    58016.153    335.63945   -420.91138    511.24398    90.332594    527.35698   -420.91138            0   -9.0266163            0            0            0            0            0            0 
10123000    589.02729    55316.053    318.08368   -427.76971    484.50314    56.733431    531.91818   -427.76971            0   -9.4672255            0            0            0            0            0            0 
10124000    531.34151    58327.549    359.22058   -423.46387    547.16261    123.69874    575.68305   -423.46387            0   -8.9784254            0            0            0            0            0            0 
10125000    530.54054    56803.421     317.8685   -424.19938    484.17538    59.975998     499.4862   -424.19938            0    -9.219331            0            0            0            0            0            0 
10126000    361.45105    57429.654    331.41179   -437.61184    504.80443    67.192591    369.92685   -437.61184            0   -9.1188003            0            0            0            0            0            0 
10127000    508.52567    55689.215    346.98546   -443.40051    528.52615    85.125645    498.13497   -443.40051            0   -9.4037876            0            0            0            0            0            0 
10128000    629.05291    56478.325     326.7073   -419.96709    497.63858    77.671493    595.80882   -419.96709            0   -9.2723986            0            0            0            0            0            0 
10129000    632.61444    57871.511    363.31791   -415.88563    553.40363      137.518    671.44246   -415.88563            0    -9.049177            0            0            0            0            0            0 
10130000    508.78959    56572.084    337.95612   -435.44274    514.77272    79.329975     499.1047   -435.44274            0   -9.2570312            0            0            0            0            0            0 
10131000     570.5752    54260.462    360.09144   -459.75827    548.48909    88.730819    540.24591   -459.75827            0   -9.6514023            0            0            0            0            0            0 
10132000    475.71198    57179.892    331.88944   -430.96945    505.53198    74.562528    471.26354   -430.96945            0   -9.1586313            0            0            0            0            0            0 
10133000    445.85348    54573.776     336.6684   -451.18695    512.81126     61.62431    416.48023   -451.18695            0   -9.5959925            0            0            0            0            0            0 
10134000     347.7049    61006.255    339.47334   -406.60377    517.08373    110.47996    419.83775   -406.60377            0   -8.5841943            0            0            0            0            0            0 
10135000    419.31929    60855.162    331.48347   -408.85076     504.9136    96.062849    468.21297   -408.85076            0   -8.6055073            0            0            0            0            0            0 
10136000    540.50705    56006.976    366.70005   -443.73564     558.5553    114.81966    556.30815   -443.73564            0   -9.3504341            0            0            0            0            0            0 
10137000    481.35118    57045.779    351.25974   -435.13853     535.0367    99.898171     500.3603   -435.13853            0    -9.180163            0            0            0            0            0            0 
10138000    591.44218    53416.573    355.50069   -461.13953    541.49649    80.356956    541.10574   -461.13953            0   -9.8038777            0            0            0            0            0            0 
10139000    519.92207    57164.665    330.06761    -426.4505    502.75699    76.306487    509.75928    -426.4505            0   -9.1610709            0            0            0            0            0            0 
10140000    511.20084    56217.756    333.11506   -431.47799    507.39884    75.920853    495.04333   -431.47799            0   -9.3153762            0            0            0            0            0            0 
10141000    572.69276    54421.158    348.70103   -454.25064     531.1393    76.888655    531.42159   -454.25064            0   -9.6229034            0            0            0            0            0            0 
10142000    496.46937    60099.689    336.09967   -402.89804    511.94498    109.04693    544.19852   -402.89804            0   -8.7136815            0            0            0            0            0            0 
10143000    455.40936    57008.706    366.43104   -432.60646    558.14554    125.53908    504.17257   -432.60646            0   -9.1861328            0            0            0            0            0            0 
10144000    512.34076    55743.522    352.09858    -446.1779    536.31442    90.136524    506.65014    -446.1779            0   -9.3946261            0            0            0            0            0            0 
10145000    544.98632    57516.958    332.10726   -415.31227    505.86376     90.55149     547.7001   -415.31227            0    -9.104959            0            0            0            0            0            0 
10146000    438.17532    55107.368    347.09124   -460.62521    528.68728    68.062068    420.21675   -460.62521            0   -9.5030767            0            0            0            0            0            0 
10147000    444.04481    55133.258    334.52467   -449.93696    509.54594    59.608984    416.64855   -449.93696            0   -9.4986142            0            0            0            0            0            0 
10148000    370.35786    60415.973    338.30063   -421.84838    515.29747    93.449094    419.77325   -421.84838            0   -8.6680645            0            0            0            0            0            0 
10149000    578.57101    53992.302    355.69655   -449.24239    541.79483    92.552441    548.13218   -449.24239            0   -9.6993372            0            0            0            0            0            0 
10150000    458.35115      56906.2     354.1056   -434.16797    539.37151    105.20354    485.59766   -434.16797            0     -9.20268            0            0            0            0            0            0 
10151000    543.82742     54466.77    333.22662   -446.08947    507.56876    61.479287    493.46423   -446.08947            0   -9.6148449            0            0            0            0            0            0 
10152000     547.6124    57002.626    365.16604   -433.89322     556.2187    122.32548    577.56926   -433.89322            0   -9.1871126            0            0            0            0            0            0 
10153000    540.80747    52342.301    332.11441   -463.41591    505.87465    42.458742    455.28886   -463.41591            0   -10.005092            0            0            0            0            0            0 
10154000    505.13794    54405.093    354.98907   -462.28494     540.7172    78.432256    479.23015   -462.28494            0   -9.6257449            0            0            0            0            0            0 
10155000    512.33044    56270.121    364.26637   -446.61932    554.84833      108.229    528.66888   -446.61932            0   -9.3067073            0            0            0            0            0            0 
10156000    533.95175    55083.369    354.13971    -441.4503    539.42346    97.973166    526.91499    -441.4503            0   -9.5072171            0            0            0            0            0            0 
10157000    557.89742     56105.53    350.74729   -426.86749    534.25614    107.38865    563.88353   -426.86749            0   -9.3340094            0            0            0            0            0            0 
10158000    485.75535    58293.417    351.61181   -419.04506    535.57298    116.52791    529.49268   -419.04506            0   -8.9836824            0            0            0            0            0            0 
10159000    540.57412    56048.379    346.18207   -436.59871    527.30244    90.703723     532.5734   -436.59871            0    -9.343527            0            0            0            0            0            0 
10160000    659.75409    53697.989    330.29502   -442.05431    503.10337    61.049056    577.72234   -442.05431            0   -9.7524982            0            0            0            0            0            0 
10161000    526.97746    55698.294    348.11396   -445.36214    530.24507    84.882931    512.94803   -445.36214            0   -9.4022547            0            0            0            0            0            0 
10162000    390.53647     57544.65    351.77444   -437.89825    535.82069     97.92244    425.67224   -437.89825            0   -9.1005775            0            0            0            0            0            0 
10163000    475.60576    56605.583    317.94219    -430.9228    484.28761    53.364808    445.99371    -430.9228            0   -9.2515529            0            0            0            0            0            0 
10164000    466.54221    56209.932    312.77572   -439.49991    476.41808    36.918163    419.37276   -439.49991            0   -9.3166729            0            0            0            0            0            0 
10165000    478.31373    56943.566    350.60395   -431.30935     534.0378    102.72845    499.95055   -431.30935            0   -9.1966412            0            0            0            0            0            0 
10166000    419.20468      57778.9    322.74137   -425.78381    491.59769    65.813882    419.05503   -425.78381            0   -9.0636814            0            0            0            0            0            0 
10167000    659.95213    57817.672     336.7139   -408.56816    512.88057    104.31241     660.7916   -408.56816            0   -9.0576035            0            0            0            0            0            0 
10168000    444.16781    59868.444    367.86571   -423.41628    560.33083    136.91454    524.72627   -423.41628            0   -8.7473386            0            0            0            0            0            0 
10169000    407.72934    56954.397    372.72789   -446.03093    567.73686    121.70593    460.37467   -446.03093            0   -9.1948923            0            0            0            0            0            0 
10170000    417.11219    56957.446     350.1858   -442.19258    533.40088    91.208305    437.68919   -442.19258            0      -9.1944            0            0            0            0            0            0 
10171000    455.97152     58976.77    336.53032   -417.34395    512.60095    95.256993    487.44525   -417.34395            0   -8.8795902            0            0            0            0            0            0 
10172000     494.2444    55988.233    341.68869   -441.11782    520.45814    79.340321    482.90617   -441.11782            0   -9.3535644            0            0            0            0            0            0 
10173000     475.6596    58997.614    348.09574   -415.95934    530.21732    114.25798    523.52486   -415.95934            0    -8.876453            0            0            0            0            0            0 
10174000    462.61603    55215.678     324.9986   -448.55143    495.03589    46.484465    419.01251   -448.55143            0   -9.4844356            0            0            0            0            0            0 
10175000    557.03762    54829.181    342.31083    -443.4723    521.40578    77.933481      523.356    -443.4723            0   -9.5512926            0            0            0            0            0            0 
10176000    468.77759     58865.88    356.51049   -421.52466    543.03462    121.50995     523.9548   -421.52466            0   -8.8963173            0            0            0            0            0            0 
10177000    519.64936    56009.012    322.27206   -440.86735    490.88285    50.015505    474.48277   -440.86735            0   -9.3500943            0            0            0            0            0            0 
10178000    521.95877    57686.226    348.24381   -421.36907    530.44286    109.07379    548.19479   -421.36907            0   -9.0782425            0            0            0            0            0            0 
10179000    514.47936    58133.097    345.95646   -415.62625    526.95879    111.33254     547.5141   -415.62625            0   -9.0084578            0            0            0            0            0            0 
10180000    490.61208    56408.893    326.84208    -429.8688    497.84387    67.975074    471.58488    -429.8688            0   -9.2838117            0            0            0            0            0            0 
10181000    503.38573    56788.859    338.13984   -429.41189    515.05255    85.640663    502.54837   -429.41189            0   -9.2216952            0            0            0            0            0            0 
10182000    525.04074    56495.921    337.32144   -429.60707    513.80597    84.198902    516.79838   -429.60707            0   -9.2695107            0            0            0            0            0            0 
10183000    430.24507    56586.737    350.08753   -441.86816     533.2512     91.38304    446.44687   -441.86816            0   -9.2546341            0            0            0            0            0            0 
10184000    480.90212    53903.147    334.72475   -462.05146    509.85071    47.799247    425.84704   -462.05146            0   -9.7153798            0            0            0            0            0            0 
10185000    463.32337    54535.986    319.17789   -449.60719    486.16983    36.562642    405.06754   -449.60719            0   -9.6026419            0            0            0            0            0            0 
10186000    350.56993    56337.949    335.97339    -452.5068    511.75264    59.245839    347.28503    -452.5068            0   -9.2955025            0            0            0            0            0            0 
10187000      493.069      53168.3     344.5546   -467.12307    524.82348    57.700417    440.02864   -467.12307            0   -9.8496575            0            0            0            0            0            0 
10188000    556.95292     55813.25    340.92821   -426.38677    519.29978    92.913003    546.26098   -426.38677            0   -9.3828893            0            0            0            0            0            0 
10189000    458.22267    59648.606    331.20846   -419.04575    504.49472    85.448971    484.06316   -419.04575            0   -8.7795773            0            0            0            0            0            0 
10190000    476.33588    54512.012    336.28791   -455.94609     512.2317    56.285606    434.97347   -455.94609            0   -9.6068651            0            0            0            0            0            0 
10191000    432.96478    56632.654     332.2984   -438.08266    506.15491    68.072251    425.67049   -438.08266            0   -9.2471305            0            0            0            0            0            0 
10192000    527.26367    56665.297    346.59465   -423.62655    527.93087    104.30433    540.03778   -423.62655            0   -9.2418035            0            0            0            0            0            0 
10193000    472.70201    58531.508    341.99296   -420.45861     520.9216      100.463    503.97184   -420.45861            0   -8.9471391            0            0            0            0            0            0 
10194000    511.70682    54303.358    326.10193    -457.8821    496.71648    38.834381    444.08509    -457.8821            0   -9.6437784            0            0            0            0            0            0 
10195000    456.97101     57607.82    343.56395   -428.09461    523.31452     95.21991    479.14455   -428.09461            0   -9.0905982            0            0            0            0            0            0 
10196000    441.53463     54436.73    340.59864   -470.50848    518.79778    48.289296    398.82535   -470.50848            0   -9.6201507            0            0            0            0            0            0 
10197000    464.59403    56384.295    323.07545    -437.8879    492.10657    54.218672    436.25765    -437.8879            0   -9.2878618            0            0            0            0            0            0 
10198000     526.3545    57154.316    354.98429    -425.5956    540.70991    115.11431    553.85031    -425.5956            0   -9.1627296            0            0            0            0            0            0 
10199000    620.94782    54083.827    341.46345     -442.622    520.11505    77.493053    567.27008     -442.622            0   -9.6829232            0            0            0            0            0            0 
10200000    490.30599    57500.594    343.28649   -417.79838     522.8919    105.09352    516.25784   -417.79838            0   -9.1075501            0            0            0            0            0            0 
10201000    534.92501    56531.138    338.46819   -424.56727    515.55269    90.985423    532.00363   -424.56727            0   -9.2637361            0            0            0            0            0            0 
10202000     624.7899    55669.349    345.84138   -424.06133    526.78349    102.72216    609.97681   -424.06133            0   -9.4071433            0            0            0            0            0            0 
10203000     376.3016    56333.536    327.79753   -443.64474    499.29921    55.654472    364.81138   -443.64474            0   -9.2962307            0            0            0            0            0            0 
10204000    396.20469     60408.04    323.93413   -406.20813     493.4145    87.206369    436.25846   -406.20813            0   -8.6692027            0            0            0            0            0            0 
10205000    485.75399    55101.424    334.85435   -447.53108    510.04812    62.517038    452.86785   -447.53108            0   -9.5041019            0            0            0            0            0            0 
10206000    665.49816    54361.793     352.4597   -435.29972    536.86448    101.56475    629.17901   -435.29972            0    -9.633412            0            0            0            0            0            0 
10207000    405.75481     57926.57    339.80403   -423.76664    517.58743    93.820791    436.60229   -423.76664            0   -9.0405758            0            0            0            0            0            0 
10208000    478.03868    59225.808    333.98307   -408.12773    508.72099    100.59326    513.49805   -408.12773            0   -8.8422525            0            0            0            0            0            0 
10209000    443.10837    57736.847    315.06596   -428.33773    479.90655    51.568825    424.68056   -428.33773            0    -9.070283            0            0            0            0            0            0 
10210000    429.82577    55163.938    338.16467   -462.04715    515.09037     53.04322    398.84212   -462.04715            0   -9.4933313            0            0            0            0            0            0 
10211000     478.1862    57750.612    324.31895   -423.12688    494.00066    70.873785    473.61819   -423.12688            0   -9.0681211            0            0            0            0            0            0 
10212000    599.19266    54864.605    338.44996   -434.53731    515.52493     80.98762    560.42802   -434.53731            0   -9.5451256            0            0            0            0            0            0 
10213000    376.62364     59762.85     339.7248   -423.14027    517.46676    94.326496    422.58408   -423.14027            0    -8.762794            0            0            0            0            0            0 
10214000    530.73393    56807.555    324.51396   -433.61606     494.2977    60.681644    500.38405   -433.61606            0   -9.2186601            0            0            0            0            0            0 
10215000    487.26671     56007.64    317.56001   -437.32402    483.70549     46.38147    444.38773   -437.32402            0   -9.3503234            0            0            0            0            0            0 
10216000    492.96006    60029.093    339.46074   -403.39345    517.06454    113.67109    545.23926   -403.39345            0   -8.7239291            0            0            0            0            0            0 
10217000    550.33843    55858.849    338.93231   -425.55074    516.25964    90.708903    539.03882   -425.55074            0   -9.3752297            0            0            0            0            0            0 
10218000    430.58218    58535.132    349.41667   -425.71667    532.22935    106.51268    474.08986   -425.71667            0   -8.9465852            0            0            0            0            0            0 
10219000     570.4445    53847.339    346.58946   -453.38355    527.92297    74.539414    522.51416   -453.38355            0    -9.725449            0            0            0            0            0            0 
10220000    486.18805    58206.279    338.69347   -422.08411    515.89583    93.811721    506.52648   -422.08411            0   -8.9971315            0            0            0            0            0            0 
10221000    495.36103    56837.946    335.24364   -422.64183    510.64108    87.999246    498.61546   -422.64183            0   -9.2137311            0            0            0            0            0            0 
10222000    472.02985     56714.85    349.09764   -428.27074     531.7434    103.47267    493.90173   -428.27074            0   -9.2337288            0            0            0            0            0            0 
10223000    595.80461     56481.33    352.05436   -424.77311    536.24706    111.47394    602.25146   -424.77311            0   -9.2719053            0            0            0            0            0            0 
10224000    503.45305    56457.408     355.7395   -432.49241    541.86025    109.36784    523.89768   -432.49241            0    -9.275834            0            0            0            0            0            0 
10225000     500.3015    55870.839    319.42301   -438.01981    486.54319    48.523388    456.17849   -438.01981            0   -9.3732179            0            0            0            0            0            0 
10226000    534.79362    57895.049    341.12561   -415.04562    519.60046    104.55484    556.10243   -415.04562            0    -9.045498            0            0            0            0            0            0 
10227000    411.81953    58217.149      337.662   -432.07821     514.3247    82.246494    431.89668   -432.07821            0   -8.9954517            0            0            0            0            0            0 
10228000    541.14376    53412.216     340.3818   -456.11003    518.46749    62.357463    483.88809   -456.11003            0   -9.8046774            0            0            0            0            0            0 
10229000    502.96698     55840.09    339.02469    -438.8044    516.40034    77.595944    487.19739    -438.8044            0   -9.3783793            0            0            0            0            0            0 
10230000    568.52004    56617.077    327.76959   -420.56246    499.25665    78.694189    548.12232   -420.56246            0   -9.2496747            0            0            0            0            0            0 
10231000    601.64097    56424.779    349.18603   -420.85717    531.87805    111.02087    606.10973   -420.85717            0   -9.2811981            0            0            0            0            0            0 
10232000    458.82763    55899.504    329.74619   -446.54778     502.2674    55.719623    429.77285   -446.54778            0   -9.3684114            0            0            0            0            0            0 
10233000    410.11192    58564.039    332.68518   -430.69436    506.74405    76.049697    426.32483   -430.69436            0   -8.9421693            0            0            0            0            0            0 
10234000    602.23747    59867.764    362.82679   -396.09145    552.65556    156.56411    682.38363   -396.09145            0   -8.7474378            0            0            0            0            0            0 
10235000    529.86195    55857.294    334.65853   -434.37647    509.74985    75.373382    507.01023   -434.37647            0   -9.3754908            0            0            0            0            0            0 
10236000    630.75004    52504.812    356.50709   -458.82651    543.02944    84.202933    567.18642   -458.82651            0   -9.9741247            0            0            0            0            0            0 
10237000    354.36121    58531.379    343.75501   -429.28129    523.60555    94.324258    396.81412   -429.28129            0   -8.9471588            0            0            0            0            0            0 
10238000    508.42629    57588.229    355.41083   -424.52644    541.35962    116.83318    543.84275   -424.52644            0   -9.0936907            0            0            0            0            0            0 
10239000    640.33475    54649.975    348.59548   -436.95473    530.97852    94.023791    604.37944   -436.95473            0   -9.5826127            0            0            0            0            0            0 
10240000    500.36735    55782.976    344.30622    -444.2352    524.44515    80.209954    487.27755    -444.2352            0   -9.3879815            0            0            0            0            0            0 
10241000    457.89274    59678.086    336.63248   -412.03182    512.75655    100.72473    499.24879   -412.03182            0   -8.7752402            0            0            0            0            0            0 
10242000    501.03571    58144.735    342.83799   -415.28569    522.20874    106.92305    531.79197   -415.28569            0   -9.0066547            0            0            0            0            0            0 
10243000    610.80055    55511.259    350.03678   -435.32372    533.17391    97.850183     592.3389   -435.32372            0   -9.4339338            0            0            0            0            0            0 
10244000    352.02516    58279.137     325.7282    -432.2164    496.14722    63.930821    363.13159    -432.2164            0   -8.9858837            0            0            0            0            0            0 
10245000    437.26553    56970.914    337.02891   -441.66074    513.36039    71.699646    435.00711   -441.66074            0   -9.1922265            0            0            0            0            0            0 
10246000    526.22654    57690.126    348.12132   -415.37022    530.25628    114.88606    557.62745   -415.37022            0   -9.0776287            0            0            0            0            0            0 
10247000    550.04603    58022.135    360.35199   -415.19857    548.88596    133.68739    599.13267   -415.19857            0   -9.0256855            0            0            0            0            0            0 
10248000     573.8029    55042.078    343.52054    -441.1566     523.2484    82.091801    542.70189    -441.1566            0   -9.5143491            0            0            0            0            0            0 
10249000    519.47811    58299.595    338.88837   -418.89231     516.1927    97.300399    538.98136   -418.89231            0   -8.9827304            0            0            0            0            0            0 
10250000    620.03446    55291.671    339.29713   -431.16917    516.81532    85.646152    585.62478   -431.16917            0   -9.4714002            0            0            0            0            0            0 
10251000    515.66388    58109.818    348.63902   -417.69487    531.04483    113.34996    550.36071   -417.69487            0   -9.0120666            0            0            0            0            0            0 
10252000    475.97046    58619.259    324.57024   -414.96457    494.38343    79.418853    486.32684   -414.96457            0   -8.9337456            0            0            0            0            0            0 
10253000    362.08842    60522.787     342.6869   -409.83808    521.97861    112.14053     431.7425   -409.83808            0   -8.6527666            0            0            0            0            0            0 
10254000    523.00348     52966.63    331.07027   -468.34275    504.28423    35.941477    439.94282   -468.34275            0   -9.8871599            0            0            0            0            0            0 
10255000    415.99847    56987.658    353.04475    -443.3291    537.75562    94.426516    440.16556    -443.3291            0   -9.1895257            0            0            0            0            0            0 
10256000    556.05028    57193.659    364.11626   -424.70206    554.61969    129.91762    593.72519   -424.70206            0   -9.1564267            0            0            0            0            0            0 
10257000    562.03302    57041.458    350.87063   -421.63737    534.44402    112.80665    580.35695   -421.63737            0   -9.1808583            0            0            0            0            0            0 
10258000    574.00844    53326.766    322.70338   -459.13254    491.53983     32.40729    478.82294   -459.13254            0   -9.8203882            0            0            0            0            0            0 
10259000     506.1563    58086.612    354.38861   -417.50677    539.80258    122.29581    551.07785   -417.50677            0   -9.0156669            0            0            0            0            0            0 
10260000    589.20804    56527.357    329.30141    -421.7008    501.58991    79.889108     565.6284    -421.7008            0   -9.2643557            0            0            0            0            0            0 
10261000     404.7419    57956.039    350.97641   -428.32113    534.60514    106.28401    448.38376   -428.32113            0   -9.0359788            0            0            0            0            0            0 
10262000    522.03228    56264.678    331.44064   -426.56811    504.84837    78.280256    506.64043   -426.56811            0   -9.3076076            0            0            0            0            0            0 
10263000    403.96843     59437.88    332.90591   -415.20283    507.08026    91.877427    442.05363   -415.20283            0   -8.8107036            0            0            0            0            0            0 
10264000    498.61619    52485.945    353.52209   -476.85931     538.4827    61.623392    443.29098   -476.85931            0   -9.9777102            0            0            0            0            0            0 
10265000     507.0373    59341.088    334.83915    -399.4898    510.02496    110.53515    549.33989    -399.4898            0   -8.8250748            0            0            0            0            0            0 
10266000    443.83445    59131.924    343.84414   -413.66092     523.7413    110.08038    492.83365   -413.66092            0   -8.8562913            0            0            0            0            0            0 
10267000    539.84933      56177.6     347.9573   -430.58099    530.00644    99.425448    541.72005   -430.58099            0   -9.3220349            0            0            0            0            0            0 
10268000    427.48231    56201.413    335.61431   -436.71476    511.20568    74.490922     424.8725   -436.71476            0   -9.3180851            0            0            0            0            0            0 
10269000     474.4775     59001.52    343.02052   -413.68152    522.48678    108.80526    517.08206   -413.68152            0   -8.8758653            0            0            0            0            0            0 
10270000    421.83284    55388.179    336.11798   -455.96153    511.97286     56.01133    396.75936   -455.96153            0   -9.4548974            0            0            0            0            0            0 
10271000    349.47335    55720.082    330.72696   -456.77813     503.7613    46.983164    330.97228   -456.77813            0   -9.3985781            0            0            0            0            0            0 
10272000    482.01036    56895.268     330.4427    -426.9819    503.32832    76.346415    476.29891    -426.9819            0   -9.2044482            0            0            0            0            0            0 
10273000    488.73605     57003.14    326.31583   -428.24712    497.04229     68.79517    475.09725   -428.24712            0   -9.1870298            0            0            0            0            0            0 
10274000    367.67172    57766.591    318.36916   -427.84968    484.93798    57.088305    366.83941   -427.84968            0   -9.0656127            0            0            0            0            0            0 
10275000    418.51706    56796.209     349.5888   -443.86919    532.49154    88.622343    435.28607   -443.86919            0   -9.2205017            0            0            0            0            0            0 
10276000    531.04438    56394.435     345.0258   -434.14435     525.5412    91.396857    528.15696   -434.14435            0    -9.286192            0            0            0            0            0            0 
10277000    495.28173    58957.785    346.13875   -410.47894    527.23645    116.75751    542.61997   -410.47894            0   -8.8824494            0            0            0            0            0            0 
10278000    462.53313    58613.641    311.09202   -410.89205    473.85348    62.961436    458.34393   -410.89205            0   -8.9346019            0            0            0            0            0            0 
10279000    407.37431    55954.435    340.05043   -447.54122    517.96275    70.421533    402.85447   -447.54122            0   -9.3592142            0            0            0            0            0            0 
10280000    565.58614    55363.018    314.97072   -429.55632    479.76149    50.205175    506.86668   -429.55632            0   -9.4591943            0            0            0            0            0            0 
10281000    452.15379    57290.864    336.70064    -431.1538    512.86038    81.706576    459.49395    -431.1538            0    -9.140891            0            0            0            0            0            0 
10282000    494.37427    56577.748    332.78481   -438.59547    506.89581    68.300342     476.2226   -438.59547            0   -9.2561045            0            0            0            0            0            0 
10283000    398.25738     58841.74     318.7313   -421.89867    485.48959    63.590915    405.35407   -421.89867            0    -8.899967            0            0            0            0            0            0 
10284000    618.09941    53647.318    349.07583   -446.12679    531.71019      85.5834    569.17888   -446.12679            0   -9.7617097            0            0            0            0            0            0 
10285000    476.41155    58103.194    332.72143   -420.39935    506.79927    86.399918    490.09938   -420.39935            0    -9.013094            0            0            0            0            0            0 
10286000    582.94655    55759.212    334.67036   -431.78327    509.76787    77.984597    552.03143   -431.78327            0   -9.3919825            0            0            0            0            0            0 
10287000     431.1821    58218.193    318.54891   -420.54716    485.21177    64.664607     430.7609   -420.54716            0   -8.9952903            0            0            0            0            0            0 
10288000    485.35053    55816.457    329.38077   -437.68287     501.7108    64.027927    459.11577   -437.68287            0   -9.3823501            0            0            0            0            0            0 
10289000    508.52916    58927.608    352.64109   -409.26618    537.14076    127.87458    564.90389   -409.26618            0   -8.8869981            0            0            0            0            0            0 
10290000    531.91734     56455.66    352.40751   -434.79323    536.78498    101.99175    539.94477   -434.79323            0   -9.2761212            0            0            0            0            0            0 
10291000    439.97399    58020.181    337.37396   -424.33719    513.88597    89.548787     461.8393   -424.33719            0   -9.0259896            0            0            0            0            0            0 
10292000    472.80006    56340.192    338.86073   -431.73471    516.15062    84.415908    472.89866   -431.73471            0   -9.2951324            0            0            0            0            0            0 
10293000    576.29615    54175.128    329.40768   -444.05832    501.75178    57.693463    513.01852   -444.05832            0   -9.6666047            0            0            0            0            0            0 
10294000    528.03517    57157.754    319.70717   -427.61117    486.97603    59.364852    499.52822   -427.61117            0   -9.1621784            0            0            0            0            0            0 
10295000    502.48846    58220.745    355.04594    -418.7439    540.80383    122.05992    548.71778    -418.7439            0    -8.994896            0            0            0            0            0            0 
10296000    583.13824    55688.743    358.05942    -435.2472    545.39393    110.14673    583.75015    -435.2472            0   -9.4038672            0            0            0            0            0            0 
10297000    460.69128    60068.785    330.29994   -400.07491    503.11087    103.03596    506.62069   -400.07491            0   -8.7181644            0            0            0            0            0            0 
10298000    500.21668    53910.494    338.94451   -460.05411    516.27822    56.224116    449.50911   -460.05411            0   -9.7140557            0            0            0            0            0            0 
10299000    435.03075    56849.997     335.3039   -434.84698    510.73286    75.885884     436.5694   -434.84698            0   -9.2117779            0            0            0            0            0            0 
10300000    574.14288    56156.689    343.56526   -422.97354    523.31651    100.34297    570.55894   -422.97354            0    -9.325506            0            0            0            0            0            0 
10301000    439.49723    59458.037    347.12209   -413.31704    528.73427    115.41722    496.52043   -413.31704            0   -8.8077167            0            0            0            0            0            0 
10302000    604.53015    53583.944    346.58975   -448.78349     527.9234    79.139913    551.56018   -448.78349            0    -9.773255            0            0            0            0            0            0 
10303000    361.39299    58212.099    338.61251    -439.6236    515.77252    76.148916    382.95846    -439.6236            0    -8.996232            0            0            0            0            0            0 
10304000    492.65837    55965.286    327.28379   -440.10822    498.51668     58.40846    460.51439   -440.10822            0   -9.3573997            0            0            0            0            0            0 
10305000    516.10497    56799.994    337.06438   -435.35708    513.41442    78.057336    505.58303   -435.35708            0   -9.2198874            0            0            0            0            0            0 
10306000    483.09083    59329.935    351.21378   -423.26333    534.96671    111.70337    529.70557   -423.26333            0   -8.8267338            0            0            0            0            0            0 
10307000    517.54815    56421.624    332.75552   -442.76732     506.8512    64.083871    489.94915   -442.76732            0   -9.2817171            0            0            0            0            0            0 
10308000    552.54709    56965.759     322.5659   -419.91669    491.33043    71.413741    530.46277   -419.91669            0   -9.1930583            0            0            0            0            0            0 
10309000    590.66755    53023.247    334.96282   -457.89828    510.21334    52.315054    509.07217   -457.89828            0   -9.8766028            0            0            0            0            0            0 
10310000    459.38576     59419.68    374.58629   -423.33545    570.56757    147.23211    545.32436   -423.33545            0   -8.8134023            0            0            0            0            0            0 
10311000    489.51718    57632.416    340.45698    -426.9176    518.58201    91.664411    503.10833    -426.9176            0   -9.0867186            0            0            0            0            0            0 
10312000    559.12479    55884.413    328.13858   -423.81628    499.81869    76.002414    531.69854   -423.81628            0   -9.3709411            0            0            0            0            0            0 
10313000    632.25161    54284.788    347.98471   -446.43934     530.0482    83.608858    584.15483   -446.43934            0   -9.6470774            0            0            0            0            0            0 
10314000    548.65672    55738.098    325.70864   -431.89458    496.11742    64.222841    510.21655   -431.89458            0   -9.3955404            0            0            0            0            0            0 
10315000    474.00107    58315.999    341.71204   -423.66648     520.4937    96.827227     499.9552   -423.66648            0   -8.9802036            0            0            0            0            0            0 
10316000     476.8543    58130.188    370.03607   -420.06529    563.63669     143.5714    547.83377   -420.06529            0   -9.0089085            0            0            0            0            0            0 
10317000    545.18024     55328.31    334.98619   -434.47757    510.24893    75.771362    515.68092   -434.47757            0   -9.4651281            0            0            0            0            0            0 
10318000    617.54992    55851.569    346.15294    -421.7755    527.25805    105.48255    608.50034    -421.7755            0   -9.3764518            0            0            0            0            0            0 
10319000    491.08779    59370.151    334.35142    -409.9684    509.28206    99.313662    524.52338    -409.9684            0   -8.8207548            0            0            0            0            0            0 
10320000    590.04962    55990.454    350.45838    -434.9607    533.81608     98.85538    580.66826    -434.9607            0   -9.3531934            0            0            0            0            0            0 
10321000    674.31541    54850.147    332.66907   -432.40249    506.71952     74.31703    613.72427   -432.40249            0   -9.5476416            0            0            0            0            0            0 
10322000    468.96456    55270.009    341.39567   -449.82237    520.01181     70.18944    448.20131   -449.82237            0   -9.4751124            0            0            0            0            0            0 
10323000    626.22119    54487.904    328.77492   -429.05479    500.78796    71.733169    569.35996   -429.05479            0   -9.6111155            0            0            0            0            0            0 
10324000    419.57873    54075.183    358.58663    -471.0293    546.19698    75.167682    406.06051    -471.0293            0   -9.6844711            0            0            0            0            0            0 
10325000    478.74992    58509.156    340.31445   -412.17489    518.36491    106.19002    514.70542   -412.17489            0   -8.9505572            0            0            0            0            0            0 
10326000    410.10155    57955.206    327.88722   -427.80956    499.43583    71.626269    418.25117   -427.80956            0   -9.0361087            0            0            0            0            0            0 
10327000    564.97976    54448.183    348.02737   -448.58739    530.11318    81.525786    530.15978   -448.58739            0    -9.618127            0            0            0            0            0            0 
10328000    478.48143    57564.446    350.30596   -424.67148    533.58391    108.91243    510.60639   -424.67148            0   -9.0974478            0            0            0            0            0            0 
10329000    430.35879    58315.327    335.93228   -430.18558    511.69002    81.504436    447.51134   -430.18558            0   -8.9803071            0            0            0            0            0            0 
10330000     493.2816    56432.637    325.57237   -426.11845    495.90986     69.79141    475.76815   -426.11845            0   -9.2799056            0            0            0            0            0            0 
10331000     508.9464    55921.248    336.05975   -427.08189    511.88417    84.802283    499.87557   -427.08189            0   -9.3647686            0            0            0            0            0            0 
10332000    515.44485    57614.054    326.58795   -415.61148    497.45679    81.845314    514.94367   -415.61148            0   -9.0896145            0            0            0            0            0            0 
10333000    474.62252     58538.64    340.99717   -416.96206    519.40482    102.44276    507.64035   -416.96206            0   -8.9460491            0            0            0            0            0            0 
10334000    468.11615    57652.433    326.41246   -423.28058    497.18948    73.908902    467.50171   -423.28058            0   -9.0835636            0            0            0            0            0            0 
10335000    416.17507    58131.127     345.0393   -433.37596    525.56177    92.185808     445.0119   -433.37596            0    -9.008763            0            0            0            0            0            0 
10336000       419.05    55598.265    365.50205   -459.60954    556.73051    97.120969    436.90501   -459.60954            0   -9.4191706            0            0            0            0            0            0 
10337000    532.79638    54901.495    344.74281   -448.62532    525.11016    76.484838    503.08531   -448.62532            0   -9.5387119            0            0            0            0            0            0 
10338000    596.89612    56691.934    329.41926   -409.78781    501.76941    91.981607    585.49157   -409.78781            0   -9.2374612            0            0            0            0            0            0 
10339000    497.88206    57874.714    356.54523   -424.36679    543.08754    118.72074    538.95478   -424.36679            0   -9.0486762            0            0            0            0            0            0 
10340000    394.34538    56025.906    321.58172   -449.00562    489.83133    40.825705    363.03758   -449.00562            0   -9.3472749            0            0            0            0            0            0 
10341000    546.42826    55820.981    329.63725    -426.9741    502.10146    75.127357     519.9701    -426.9741            0   -9.3815897            0            0            0            0            0            0 
10342000    445.13808    59036.142    328.46472   -409.42584    500.31547    90.889635    474.14532   -409.42584            0   -8.8706601            0            0            0            0            0            0 
10343000    553.52615    54533.044    349.95165   -451.97872    533.04424    81.065513    521.28958   -451.97872            0   -9.6031599            0            0            0            0            0            0 
10344000    406.83101    57633.008    333.05913    -435.9788    507.31364    71.334843    413.28375    -435.9788            0   -9.0866252            0            0            0            0            0            0 
10345000    461.19623    57011.477    325.53942   -430.56687    495.85967    65.292807    448.75622   -430.56687            0   -9.1856863            0            0            0            0            0            0 
10346000    518.19484    54893.205     335.4806   -442.97998    511.00202    68.022038    482.86866   -442.97998            0   -9.5401524            0            0            0            0            0            0 
10347000    509.42868    57298.093    337.91588      -426.66    514.71142    88.051416     513.7473      -426.66            0   -9.1397378            0            0            0            0            0            0 
10348000    538.61661    58267.809    338.13083   -419.16924    515.03883    95.869588    553.57318   -419.16924            0   -8.9876306            0            0            0            0            0            0 
10349000    494.11575    56120.954    341.70504   -430.00317    520.48305    90.479874    494.89709   -430.00317            0   -9.3314441            0            0            0            0            0            0 
10350000    499.76806    55932.123     334.1747   -440.10151    509.01288    68.911368    476.57849   -440.10151            0   -9.3629477            0            0            0            0            0            0 
10351000    543.24845    56385.705    337.91359   -425.12688    514.70793    89.581044    536.30928   -425.12688            0   -9.2876296            0            0            0            0            0            0 
10352000    497.02327     57114.09    367.01917    -439.1158    559.04138    119.92558    533.92132    -439.1158            0    -9.169183            0            0            0            0            0            0 
10353000    544.96894    58255.072    331.88459   -411.90732     505.5246    93.617275     556.6177   -411.90732            0   -8.9895957            0            0            0            0            0            0 
[...]
14939000    470.62004    56546.584    348.24775   -433.89703    530.44886     96.55183    484.65991   -433.89703            0   -9.2612057            0            0            0            0            0            0 
14940000    479.71373     55617.48    363.21098   -446.65819    553.24077    106.58258    495.68984   -446.65819            0   -9.4159165            0            0            0            0            0            0 
14941000     441.7225    58666.818    336.44685   -416.01389     512.4738    96.459914    474.39564   -416.01389            0   -8.9265033            0            0            0            0            0            0 
14942000    433.88824    58316.987    327.15314   -424.02793    498.31768    74.289751    443.30885   -424.02793            0   -8.9800515            0            0            0            0            0            0 
14943000    584.72789    54488.179    326.45317   -436.56143    497.25148    60.690048    525.34652   -436.56143            0   -9.6110672            0            0            0            0            0            0 
14944000    513.13081    58308.611      336.137   -411.21295    512.00184    100.78889     537.1406   -411.21295            0   -8.9813414            0            0            0            0            0            0 
14945000    530.24325    56369.355    322.49803   -422.36474    491.22704      68.8623    504.76956   -422.36474            0   -9.2903235            0            0            0            0            0            0 
14946000    490.56147    55722.579    341.42711   -445.15143     520.0597    74.908265    473.56631   -445.15143            0    -9.398157            0            0            0            0            0            0 
14947000    621.41073    54879.036    340.25921   -430.68047    518.28076     87.60029    584.94913   -430.68047            0   -9.5426157            0            0            0            0            0            0 
14948000    541.23185    54219.337    344.33152   -451.67128    524.48368    72.812401    500.78251   -451.67128            0   -9.6587227            0            0            0            0            0            0 
14949000    532.65313    58078.323    345.95691   -415.59852    526.95946    111.36094    562.52495   -415.59852            0   -9.0169536            0            0            0            0            0            0 
14950000    433.14327    55935.722    317.32083   -443.26264    483.34116    40.078524     393.4217   -443.26264            0   -9.3623453            0            0            0            0            0            0 
14951000    372.00546    57791.056     339.9796   -435.28836    517.85487    82.566509    396.10137   -435.28836            0    -9.061775            0            0            0            0            0            0 
14952000     535.3469    53824.607    370.30147   -459.09869    564.04096    104.94227     525.1771   -459.09869            0   -9.7295564            0            0            0            0            0            0 
14953000    587.22404    55607.492    336.66634   -430.74324    512.80813    82.064887     558.2908   -430.74324            0   -9.4176077            0            0            0            0            0            0 
14954000    493.74434    61541.038    341.01755   -385.98538    519.43587    133.45049     576.5924   -385.98538            0   -8.5095989            0            0            0            0            0            0 
14955000    455.46687    57945.188    369.67456   -430.99707    563.08604    132.08897    516.99087   -430.99707            0    -9.037671            0            0            0            0            0            0 
14956000    475.60639    56221.116    321.21674   -433.13604     489.2754    56.139359    446.10203   -433.13604            0   -9.3148194            0            0            0            0            0            0 
14957000    508.59106    57198.042    336.29164   -432.38607    512.23739    79.851325    504.10515   -432.38607            0   -9.1557251            0            0            0            0            0            0 
14958000    520.45249    58423.882     344.8952   -406.74838    525.34228    118.59391    562.04669   -406.74838            0   -8.9636211            0            0            0            0            0            0 
14959000    526.19856    58752.745    361.55163   -414.48801    550.71324    136.22523    587.09768   -414.48801            0   -8.9134482            0            0            0            0            0            0 
14960000    513.30371    56215.915    344.84749   -436.13438    525.26961    89.135235    509.96804   -436.13438            0   -9.3156812            0            0            0            0            0            0 
14961000    492.58262    56647.313    347.98042   -437.66929    530.04167    92.372379    499.31604   -437.66929            0   -9.2447377            0            0            0            0            0            0 
14962000    554.34362    54889.895    344.13465   -443.46618    524.18381    80.717626     524.4768   -443.46618            0   -9.5407278            0            0            0            0            0            0 
14963000    511.43525      57151.4    317.65162   -424.39059    483.84502    59.454435    485.73292   -424.39059            0   -9.1631972            0            0            0            0            0            0 
14964000    487.20368    54805.183     325.2582   -446.73317    495.43132    48.698152    438.10904   -446.73317            0   -9.5554747            0            0            0            0            0            0 
14965000    490.88713     56233.06    346.76496   -441.23732    528.19028    86.952963    489.53023   -441.23732            0    -9.312841            0            0            0            0            0            0 
14966000    445.22651    56433.588    336.54222   -438.26643    512.61907    74.352641    440.78563   -438.26643            0   -9.2797492            0            0            0            0            0            0 
14967000    474.19648    57309.155    327.93483   -431.57234    499.50834    67.936008    464.26717   -431.57234            0   -9.1379736            0            0            0            0            0            0 
14968000    496.45486    54902.206    346.83604   -457.22727    528.29856    71.071291     468.5789   -457.22727            0   -9.5385884            0            0            0            0            0            0 
14969000    464.17748     56989.51    351.50719   -437.43987    535.41363    97.973752    483.76723   -437.43987            0    -9.189227            0            0            0            0            0            0 
14970000    615.44815    58198.029    340.25673   -403.79293    518.27699    114.48406    636.85095   -403.79293            0   -8.9984069            0            0            0            0            0            0 
14971000    531.16144    54413.798    341.87455   -449.02625    520.74124    71.714989    493.22847   -449.02625            0   -9.6242049            0            0            0            0            0            0 
14972000    481.75613    52297.807    338.68488   -486.69747    515.88275    29.185284    396.62544   -486.69747            0   -10.013604            0            0            0            0            0            0 
14973000    531.80859     56735.61    341.19758   -430.84279    519.71008     88.86729    528.90203   -430.84279            0   -9.2303501            0            0            0            0            0            0 
14974000     475.2651    57371.023    315.78171   -427.01295    480.99679    53.983841    451.63697   -427.01295            0   -9.1281194            0            0            0            0            0            0 
14975000    438.52145    56629.498     342.7094   -441.01446    522.01287     80.99841    443.16588   -441.01446            0   -9.2476459            0            0            0            0            0            0 
14976000    615.95083     56814.25     359.5035   -422.19168    547.59355    125.40187     635.7649   -422.19168            0   -9.2175739            0            0            0            0            0            0 
14977000    538.18359    57639.471    341.08181   -417.09771    519.53374    102.43603    554.83991   -417.09771            0   -9.0856064            0            0            0            0            0            0 
14978000    503.57589    54728.983    333.46917   -454.48469    507.93821    53.453519    455.39071   -454.48469            0    -9.568779            0            0            0            0            0            0 
14979000    518.39358    57553.248    335.83148   -424.16565    511.53647    87.370822    522.48711   -424.16565            0   -9.0992179            0            0            0            0            0            0 
14980000    614.95645    56415.005    347.10871    -425.1571    528.71387    103.55678    609.51526    -425.1571            0   -9.2828059            0            0            0            0            0            0 
14981000    598.91734    57364.565    350.38088   -418.28672    533.69803    115.41131    616.46756   -418.28672            0    -9.129147            0            0            0            0            0            0 
14982000    531.74948    53736.691    351.99784    -457.6411    536.16097    78.519869    495.24903    -457.6411            0   -9.7454743            0            0            0            0            0            0 
14983000    595.17431     54575.95    341.78565   -437.06189    520.60583    83.543943    557.26356   -437.06189            0   -9.5956102            0            0            0            0            0            0 
14984000    446.30478    57384.184    347.19895   -432.43893    528.85133    96.412401    469.92017   -432.43893            0   -9.1260258            0            0            0            0            0            0 
14985000    640.53271    54941.975    328.44881   -422.30218    500.29124    77.989065    591.23021   -422.30218            0    -9.531684            0            0            0            0            0            0 
14986000    430.80393    57176.893    371.67423   -441.87461    566.13194    124.25733    483.49023   -441.87461            0   -9.1591116            0            0            0            0            0            0 
14987000    476.11278    59309.667    357.74912    -414.4676    544.92129    130.45369    542.27727    -414.4676            0   -8.8297502            0            0            0            0            0            0 
14988000    462.69646     54461.74    344.07228   -459.35337    524.08882     64.73545    432.24073   -459.35337            0   -9.6157328            0            0            0            0            0            0 
14989000    462.32185    53450.366    342.53172   -462.87064    521.74224    58.871602    419.26016   -462.87064            0   -9.7976793            0            0            0            0            0            0 
14990000    433.87961    56642.877    326.40353   -435.85123    497.17587    61.324646    419.74316   -435.85123            0   -9.2454616            0            0            0            0            0            0 
14991000    475.28539    56004.522     349.9184   -445.29586    532.99359    87.697734    475.89588   -445.29586            0   -9.3508439            0            0            0            0            0            0 
14992000    486.14394    56050.682    347.31376   -432.65219    529.02621    96.374021    493.76836   -432.65219            0   -9.3431431            0            0            0            0            0            0 
14993000    389.30605    59487.132    327.49431   -416.69379    498.83735    82.143558    419.88944   -416.69379            0   -8.8034089            0            0            0            0            0            0 
14994000    570.92661    56445.682    347.26311   -423.26833    528.94906    105.68073    575.66887   -423.26833            0    -9.277761            0            0            0            0            0            0 
14995000    475.76018    59151.667    341.27337   -408.82242    519.82553    111.00311    521.42543   -408.82242            0   -8.8533354            0            0            0            0            0            0 
14996000    614.37364     54479.42    338.23604   -446.82587    515.19908    68.373204    556.50932   -446.82587            0   -9.6126123            0            0            0            0            0            0 
14997000    495.95557    56456.101    348.96766   -432.98253    531.54542    98.562888    506.91005   -432.98253            0   -9.2760488            0            0            0            0            0            0 
14998000    489.25594    56354.244     371.7665   -446.52641    566.27248    119.74607    521.85029   -446.52641            0   -9.2928146            0            0            0            0            0            0 
14999000    482.80284    56360.813    345.08159   -434.47507    525.62619    91.151121    487.99798   -434.47507            0   -9.2917316            0            0            0            0            0            0 
15000000    463.27582    58092.454    359.71678   -423.04579    547.91842    124.87263    517.36863   -423.04579            0   -9.0147603            0            0            0            0            0            0 
Loop time of 1468.09 on 8 procs for 5000000 steps with 512 atoms

Pair  time (%) = 821.588 (55.9631)
Bond  time (%) = 0.450532 (0.0306884)
Neigh time (%) = 32.0884 (2.18573)
Comm  time (%) = 453.419 (30.885)
Outpt time (%) = 0.21465 (0.014621)
Other time (%) = 160.327 (10.9208)

Nlocal:    64 ave 72 max 55 min
Histogram: 1 0 0 1 3 0 0 2 0 1
Nghost:    1260.75 ave 1293 max 1221 min
Histogram: 1 0 1 1 0 1 1 1 0 2
Neighs:    5695.12 ave 6708 max 4703 min
Histogram: 1 0 0 1 2 2 0 1 0 1

Total # of neighbors = 45561
Ave neighs/atom = 88.9863
Ave special neighs/atom = 0
Neighbor list builds = 85503
Dangerous builds = 0

Averages
Group Pressure(MPa) Volume(m3) Temperature(K) PE(J) KE(J) ET(J) ET^2(J) H(J) H^2(J^2) V^2(m6) V*H(m3*J) Hconf(J) Uext*Hconf(J^2) V*Hconf(m3*J) Uext(J)
Block1 50.256690839135032434 5.6746974402411016246e-26 340.19242258803399181 -3.0041311560718621874e-18 3.6001498106095705852e-18 5.9601865453770416076e-19 3.8288326978577827551e-37 3.4433811181324896125e-18 1.2052409018329337041e-35 3.2229004045638280248e-51 1.9541674011173340584e-43 -1.5676869247708198389e-19 4.9052022429931398494e-37 -8.8846496360965763174e-45 -3.0041311560718621874e-18
Block2 50.432415131054852964 5.6692521714928152601e-26 339.73687824643224076 -3.0038225475539963263e-18 3.5953289275850034143e-18 5.9150638003100795465e-19 3.7809304096185794864e-37 3.4460970667203820491e-18 1.2074008992875150173e-35 3.2166297740606452347e-51 1.9538718945951774228e-43 -1.4923186086461546701e-19 4.6878630206857533568e-37 -8.4535217286507693623e-45 -3.0038225475539963263e-18
Block3 50.073619410781176953 5.6682571228689942542e-26 339.93682878907753775 -3.0065343764578320166e-18 3.5974449415242835203e-18 5.9091056506645246665e-19 3.7518609549488191013e-37 3.424102218530816431e-18 1.1915635055143125528e-35 3.2156102892526019969e-51 1.9405476254735478749e-43 -1.7334272299347000232e-19 5.3840338516965072765e-37 -9.8418213582750300326e-45 -3.0065343764578320166e-18
Block4 49.833420327451115384 5.6678661654664577299e-26 340.02379902562591951 -3.0113143363906062504e-18 3.598365320285976378e-18 5.8705098389537282394e-19 3.7237812626418499161e-37 3.4073764965627758622e-18 1.181632012876160507e-35 3.2150124229173576647e-51 1.9315143031069040135e-43 -1.9098882372320058811e-19 5.9548651437346685779e-37 -1.0802068762225389963e-44 -3.0113143363906062504e-18
Block5 49.999470854256983898 5.6740435937130858367e-26 340.90761137946168446 -3.0051934290853809894e-18 3.6077184294883273232e-18 6.0252500040294103749e-19 3.8826450903667185846e-37 3.4353328679870366281e-18 1.1990789412960662489e-35 3.2218831113256270222e-51 1.9492476515611887608e-43 -1.7238556150128809506e-19 5.3755364295029066238e-37 -9.7730300678961361685e-45 -3.0051934290853809894e-18
Ave_blocks 50.119123312535826642 5.6708232987564909411e-26 340.15950800572625212 -3.0061991691119351688e-18 3.5998014858986320901e-18 5.9360231678669566944e-19 3.7936100830867497181e-37 3.4312579535867000395e-18 1.1969832521613975526e-35 3.21840720042401187e-51 1.9458697751708304261e-43 -1.6854353231193123209e-19 5.2615001377225948028e-37 -9.5510183106287818624e-45 -3.0061991691119351688e-18
Stdev_blocks 0.20740785879949846793 2.9386258254330061035e-29 0.40183601176870659133 2.7281430027810223434e-21 4.2525045991915041185e-21 5.29171828242520526e-21 5.6476000384084446016e-39 1.4179589968289723512e-20 9.4460813462778021573e-38 3.3099036522431144752e-54 8.7028663797233894715e-46 1.4513249348453050162e-20 4.3926792514281055447e-38 8.1823331919160927974e-46 2.7281430027810223434e-21






Properties
Group rho(kg/m3) Cp(J/K) Cp_conf(J/K) Cp_id(J/K) Cp2(J/K) kT(1/Pa) aP(1/K) aP2(1/K) Cv(J/K) uJT(K/Pa) sos(m/s) Cv2(J/K) uJT2(K/Pa) sos2(m/s) CvNVT(J/K)
Block1 240.35174216443800788 1.2237511428195115493e-19 5.5383897907820230215e-21 3.1874244623416026878e-20 3.741263441419804689e-20 1.0059930042394225266e-08 0.00016851809484279476584 0.0001268229425486416611 1.223206181763740277e-19 -4.3712932416830902695e-07 643.24379285895679459 3.738176928939643039e-20 -1.4513458410214237235e-06 643.36599285814486393 1.7301534560868527974e-20
Block2 240.5825979793875149 1.2451612476609616188e-19 6.0235554872497262494e-21 3.1855988703735028406e-20 3.7879544190984753151e-20 9.731316124699243603e-09 0.00021315075281524650547 7.5365949823336472356e-05 1.2442620179916154354e-19 -4.2233183163263056e-07 653.79106378097776542 3.7868302096276273962e-20 -1.4583315078719140342e-06 653.65194832604413477 1.7704530375000307668e-20
Block3 240.62483166389500866 1.1981610889526485056e-19 3.2265791108505631803e-21 3.1863997322968602333e-20 3.5090576433819164009e-20 1.0135721092516542663e-08 -0.00035556911095467499647 -0.00018035485167032554643 1.1957576053623419475e-19 -5.3026135568633600386e-07 640.97115026318147102 3.5028739382969004088e-20 -1.7143559220593327889e-06 640.89288455116854948 1.6303244654453231322e-20
Block4 240.64142945509664173 1.2911830430223202263e-19 6.4010072669265318879e-21 3.1867482886588884139e-20 3.8268490153515413017e-20 9.5525278006418140049e-09 0.00028616920120801511056 0.00025335766815661912377 1.2895308667744988579e-19 -3.9625351514470812457e-07 659.98441691127538888 3.8138987490732275272e-20 -1.35348765227327076e-06 660.68086667151931124 1.7383999059187686762e-20
Block5 240.3794390175765443 1.179620669587316578e-19 5.340551140287585231e-21 3.1902977488676836494e-20 3.7243528628964420221e-20 9.0092872929491691057e-09 2.7246705668615741464e-05 9.008698658627524523e-05 1.1796047303722562986e-19 -4.765379044534116258e-07 679.53066126336136676 3.722610401963455492e-20 -1.4767091941933669089e-06 679.68508627000005617 1.5722749506954869955e-20
Ave_blocks 240.51600805607873212 1.2275754384085518401e-19 5.3060165592192860644e-21 3.1872938205077079261e-20 3.717895476429635705e-20 9.6977564706401989285e-09 6.7903128715999424019e-05 7.3055739088909388496e-05 1.2264722804528906114e-19 -4.5250278621707908941e-07 655.50421701555046639 3.7128780455801705319e-20 -1.4908460234838616008e-06 655.65535573537545133 1.688321163129292594e-20
Stdev_blocks 0.12461276681782187947 3.8819266080460878255e-21 1.1039127520704690008e-21 1.6131030695479396006e-23 1.1043561855788510161e-21 4.0476910249992723134e-10 0.00022796578893464127945 0.00014135913537321605454 3.8583638987794918752e-21 4.6764713976703917549e-08 13.869427803859426973 1.1000961997696819356e-21 1.1970071427128407519e-07 13.96893944704842383 7.4610731618970267372e-22






