LAMMPS (28 Oct 2012)
Scanning data file ...
Reading data file ...
  orthogonal box = (0 0 0) to (100 100 100)
  2 by 2 by 2 MPI processor grid
  512 atoms
Finding 1-2 1-3 1-4 neighbors ...
  0 = max # of 1-2 neighbors
  0 = max # of 1-3 neighbors
  0 = max # of 1-4 neighbors
  1 = max # of special neighbors
WARNING: Resetting reneighboring criteria during minimization (min.cpp:173)
Setting up minimization ...
Memory usage per processor = 4.05499 Mbytes
Step Temp E_pair E_mol TotEng Press 
       0       380.15    1409.7233            0    1988.7655     438.9858 
     701       380.15   -217.27527            0    361.76691    26.240902 
Loop time of 0.055028 on 8 procs for 701 steps with 512 atoms

Minimization stats:
  Stopping criterion = energy tolerance
  Energy initial, next-to-last, final = 
         1409.72334813     -217.256630745     -217.275265106
  Force two-norm initial, final = 5034.49 0.337455
  Force max component initial, final = 2457.89 0.147661
  Final line search alpha, max atom move = 0.254892 0.0376377
  Iterations, force evaluations = 701 710

Pair  time (%) = 0.00892594 (16.2207)
Bond  time (%) = 6.16312e-05 (0.112)
Neigh time (%) = 0.00314477 (5.71486)
Comm  time (%) = 0.0224514 (40.8)
Outpt time (%) = 0 (0)
Other time (%) = 0.0204442 (37.1524)

Nlocal:    64 ave 74 max 52 min
Histogram: 1 0 0 1 1 2 0 2 0 1
Nghost:    235.125 ave 266 max 224 min
Histogram: 4 0 2 0 0 1 0 0 0 1
Neighs:    316.25 ave 371 max 226 min
Histogram: 1 0 0 1 1 1 0 1 0 3

Total # of neighbors = 2530
Ave neighs/atom = 4.94141
Ave special neighs/atom = 0
Neighbor list builds = 60
Dangerous builds = 0
Setting up run ...
Memory usage per processor = 3.36354 Mbytes
Step Temp E_pair E_mol TotEng Press Volume 
     701       380.15   -217.27527            0    361.76691    26.240902      1000000 
 5000701    351.75616   -387.30274            0    148.49011    464.15965    61983.153 
Loop time of 1373.57 on 8 procs for 5000000 steps with 512 atoms

Pair  time (%) = 737.176 (53.6686)
Bond  time (%) = 0.46799 (0.0340711)
Neigh time (%) = 30.9937 (2.25644)
Comm  time (%) = 444.761 (32.3799)
Outpt time (%) = 4.17531e-05 (3.03975e-06)
Other time (%) = 160.17 (11.6609)

Nlocal:    64 ave 75 max 55 min
Histogram: 1 2 0 0 1 1 1 0 1 1
Nghost:    1204 ave 1232 max 1176 min
Histogram: 1 1 1 0 0 2 1 0 1 1
Neighs:    5346.62 ave 6056 max 4624 min
Histogram: 2 0 0 1 1 2 0 0 0 2

Total # of neighbors = 42773
Ave neighs/atom = 83.541
Ave special neighs/atom = 0
Neighbor list builds = 90508
Dangerous builds = 5
Setting up run ...
Memory usage per processor = 3.96674 Mbytes
Step Press Volume Temp PotEng KinEng TotEng Enthalpy E_vdwl E_coul E_tail E_long E_bond E_angle E_dihed E_impro E_mol 
10000000    464.15965    61983.153    351.75616   -387.30274    535.79284    148.49011     568.0722   -387.30274            0   -8.4489013            0            0            0            0            0            0 
10001000    541.42138    61860.744    375.41868   -389.92998    571.83546    181.90548    670.36258   -389.92998            0   -8.4656199            0            0            0            0            0            0 
10002000    460.32175    66300.727    371.57816   -358.22656     565.9856    207.75904    652.85707   -358.22656            0   -7.8986999            0            0            0            0            0            0 
10003000    450.98437    62915.421    384.18177   -384.82219    585.18333    200.36115    614.16496   -384.82219            0   -8.3237072            0            0            0            0            0            0 
10004000    511.71318    64752.042    387.80569   -379.14268    590.70327    211.56059     694.7929   -379.14268            0   -8.0876144            0            0            0            0            0            0 
10005000    501.61521    61385.934    405.46903   -403.53107    617.60797     214.0769    663.14835   -403.53107            0      -8.5311            0            0            0            0            0            0 
10006000    465.42993    62016.388    393.03349   -406.55935    598.66623    192.10687    613.06284   -406.55935            0   -8.4443735            0            0            0            0            0            0 
10007000    659.52675    61631.173    392.62885    -375.8049    598.04988    222.24499    815.04572    -375.8049            0   -8.4971536            0            0            0            0            0            0 
10008000    640.19476    60210.528    388.69886   -387.08338    592.06375    204.98036    767.14101   -387.08338            0   -8.6976408            0            0            0            0            0            0 
10009000    508.02702    63050.221    358.36629   -381.55029    545.86135    164.31107    631.45349   -381.55029            0   -8.3059114            0            0            0            0            0            0 
10010000    609.24149    64898.757    395.35557   -361.08073    602.20321    241.12247    817.75846   -361.08073            0   -8.0693309            0            0            0            0            0            0 
10011000     463.3681    64808.893    385.88279   -371.33223    587.77433    216.44209    654.40429   -371.33223            0   -8.0805198            0            0            0            0            0            0 
10012000    476.21901    62227.571    364.63906   -396.30766      555.416    159.10834    591.28914   -396.30766            0   -8.4157157            0            0            0            0            0            0 
10013000    548.16289    66239.281    398.22536    -348.2179    606.57445    258.35655    787.89943    -348.2179            0    -7.906027            0            0            0            0            0            0 
10014000    493.24428    62306.439    363.07762    -383.2766    553.03763    169.76103    617.96002    -383.2766            0    -8.405063            0            0            0            0            0            0 
10015000    486.28492    62336.442    401.58351   -396.77569    611.68957    214.91389    657.00186   -396.77569            0   -8.4010176            0            0            0            0            0            0 
10016000     437.7755    65527.124    381.97292   -369.98181    581.81883    211.83702    630.19538   -369.98181            0   -7.9919508            0            0            0            0            0            0 
10017000    542.84082    60815.445      373.661   -393.92093    569.15816    175.23723    656.69951   -393.92093            0   -8.6111274            0            0            0            0            0            0 
10018000    628.27767     61222.58     375.6859   -377.75789    572.24249     194.4846    755.45395   -377.75789            0   -8.5538627            0            0            0            0            0            0 
10019000    482.49332    62459.403    386.01414   -386.38158     587.9744    201.59283    641.09904   -386.38158            0   -8.3844789            0            0            0            0            0            0 
10020000     408.0164     63561.76    357.20322   -394.31241    544.08978    149.77737    528.00167   -394.31241            0   -8.2390661            0            0            0            0            0            0 
10021000    498.37995     62889.23    374.16669   -385.46782    569.92844    184.46061     641.5622   -385.46782            0   -8.3271738            0            0            0            0            0            0 
10022000     596.9175    62010.042    333.84827   -371.99554    508.51566    136.52012    676.34417   -371.99554            0   -8.4452377            0            0            0            0            0            0 
10023000    601.92104    64422.693    397.17397   -353.13315    604.97298    251.83982    817.36806   -353.13315            0   -8.1289608            0            0            0            0            0            0 
10024000     544.3683    65024.074    399.26047   -359.44246    608.15113    248.70867    764.93826   -359.44246            0   -8.0537794            0            0            0            0            0            0 
10025000     502.1824    62395.154    356.16499   -390.81447    542.50835    151.69389    608.66446   -390.81447            0   -8.3931125            0            0            0            0            0            0 
10026000    622.28704    63612.561    397.84613   -359.25641    605.99681     246.7404    824.05099   -359.25641            0   -8.2324864            0            0            0            0            0            0 
10027000    525.86296    62031.084    388.11458   -385.31088    591.17378     205.8629    681.58994   -385.31088            0    -8.442373            0            0            0            0            0            0 
10028000    524.15679    63755.342    374.70941   -377.27722     570.7551    193.47788    680.84215   -377.27722            0   -8.2140496            0            0            0            0            0            0 
10029000    392.45885    67056.814     379.2066   -364.06533    577.60519    213.53986     597.3469   -364.06533            0   -7.8096395            0            0            0            0            0            0 
10030000    579.83552    60136.824    402.96279   -403.43191    613.79048    210.35857    718.89397   -403.43191            0   -8.7083007            0            0            0            0            0            0 
10031000    409.08918    63106.735    396.08813   -388.61174    603.31904     214.7073     591.2113   -388.61174            0   -8.2984732            0            0            0            0            0            0 
10032000    522.23893    63823.549    381.44252   -380.25699    581.01093    200.75395    686.85447   -380.25699            0   -8.2052714            0            0            0            0            0            0 
10033000    401.90121    64965.299    387.83431   -376.63916    590.74687    214.10771    594.88991   -376.63916            0   -8.0610658            0            0            0            0            0            0 
10034000    490.91556    62378.294    395.35769   -386.56441    602.20643    215.64202    662.23941   -386.56441            0    -8.395381            0            0            0            0            0            0 
10035000    361.00715    64874.867    367.45535   -382.57297    559.70577     177.1328    518.69372   -382.57297            0   -8.0723025            0            0            0            0            0            0 
10036000    499.38845    63347.286    357.62844   -374.42713    544.73747    170.31034    631.67296   -374.42713            0   -8.2669611            0            0            0            0            0            0 
10037000    442.62869    60653.158    369.89487   -410.69722    563.42162     152.7244    544.25785   -410.69722            0   -8.6341678            0            0            0            0            0            0 
10038000    527.50452    65464.886    388.32497    -361.8498    591.49423    229.64444    733.27316    -361.8498            0   -7.9995487            0            0            0            0            0            0 
10039000     526.0238    63163.917    386.66718   -378.70687     588.9691    210.26224    694.82533   -378.70687            0   -8.2909606            0            0            0            0            0            0 
10040000    506.72661    61315.929    382.23209   -379.69302    582.21359    202.52057    655.65067   -379.69302            0   -8.5408402            0            0            0            0            0            0 
10041000    455.44192    61854.221    380.84111   -392.87861    580.09486    187.21625    598.06146   -392.87861            0   -8.4665127            0            0            0            0            0            0 
10042000    511.41768    68394.692     383.8661   -338.19945    584.70251    246.50306    756.62503   -338.19945            0   -7.6568741            0            0            0            0            0            0 
10043000    495.96995    61881.521    384.35397   -383.84163    585.44563      201.604    649.20622   -383.84163            0   -8.4627775            0            0            0            0            0            0 
10044000    597.43563    59994.209    388.38413   -392.49127    591.58436    199.09308    721.82178   -392.49127            0   -8.7290016            0            0            0            0            0            0 
10045000    551.62938    63848.083    378.30307    -369.5166    576.22894    206.71234     720.3669    -369.5166            0   -8.2021186            0            0            0            0            0            0 
10046000    424.98103    66253.605    379.86973   -365.86668    578.61526    212.74858    623.38262   -365.86668            0   -7.9043177            0            0            0            0            0            0 
10047000    447.00897    62746.022    376.34707   -394.81152    573.24957    178.43804    587.48985   -394.81152            0   -8.3461793            0            0            0            0            0            0 
10048000    526.64396    64539.229    371.38488   -357.96682     565.6912    207.72439    703.42193   -357.96682            0   -8.1142827            0            0            0            0            0            0 
10049000    444.36469    64304.884    372.14205   -377.21142    566.84452     189.6331    606.36754   -377.21142            0   -8.1438533            0            0            0            0            0            0 
10050000    592.08563    62091.493    384.76501   -379.62902    586.07172    206.44271    742.60036   -379.62902            0   -8.4341594            0            0            0            0            0            0 
10051000    398.26948    66692.946    398.51662   -371.67231     607.0181    235.34579    622.72189   -371.67231            0   -7.8522479            0            0            0            0            0            0 
10052000     648.2016    62595.047    412.60057   -375.83082    628.47068    252.63986     844.3731   -375.83082            0   -8.3663097            0            0            0            0            0            0 
10053000    494.89293     63267.56    388.87277   -386.85241    592.32864    205.47623    662.11021   -386.85241            0   -8.2773785            0            0            0            0            0            0 
10054000    447.20889    62447.362    347.79989   -387.25307    529.76668    142.51361    549.80048   -387.25307            0   -8.3860956            0            0            0            0            0            0 
10055000    464.37532    64674.434    379.11886   -373.15657    577.47155    204.31498    642.31856   -373.15657            0   -8.0973194            0            0            0            0            0            0 
10056000    521.05408    63022.613    390.84667   -387.66502    595.33528    207.67026    686.58158   -387.66502            0   -8.3095499            0            0            0            0            0            0 
10057000    502.29274     62963.67    397.72522   -375.36337    605.81265    230.44927    691.68488   -375.36337            0   -8.3173288            0            0            0            0            0            0 
10058000     452.6652    65664.235    387.25343   -365.20981    589.86207    224.65226    658.14506   -365.20981            0    -7.975263            0            0            0            0            0            0 
10059000    499.41698    61450.229    355.04923   -392.22886    540.80884    148.57998    596.15177   -392.22886            0    -8.522174            0            0            0            0            0            0 
10060000    509.37394     62056.53    376.58507   -380.25871     573.6121    193.35339    654.35251   -380.25871            0   -8.4389111            0            0            0            0            0            0 
10061000    322.17945    66850.564    364.36179   -379.70456    554.99367    175.28911    489.39697   -379.70456            0   -7.8337341            0            0            0            0            0            0 
10062000    506.49884    61972.167    394.12149   -394.18457    600.32346    206.13889    663.91279   -394.18457            0   -8.4503992            0            0            0            0            0            0 
10063000    513.25394    63014.357    401.71038   -377.99071    611.88282    233.89211    705.57235   -377.99071            0   -8.3106386            0            0            0            0            0            0 
10064000    586.67463    61935.522    369.56618   -381.81548    562.92097    181.10549    711.02877   -381.81548            0   -8.4553989            0            0            0            0            0            0 
10065000     442.9242    65173.886    393.91132   -375.83693    600.00333    224.16641    645.16333   -375.83693            0   -8.0352665            0            0            0            0            0            0 
10066000    512.16326    61204.846    369.40575   -394.88333     562.6766    167.79327    624.95527   -394.88333            0   -8.5563412            0            0            0            0            0            0 
10067000    412.65758    61297.414    382.83726   -408.29369    583.13539    174.84171    543.74104   -408.29369            0   -8.5434198            0            0            0            0            0            0 
10068000    463.72317    64858.625    375.64907   -368.53312    572.18638    203.65326    642.28739   -368.53312            0   -8.0743239            0            0            0            0            0            0 
10069000    429.82177    64658.111    361.08617   -376.55125    550.00427    173.45302      578.763   -376.55125            0   -8.0993636            0            0            0            0            0            0 
10070000    448.87505    63015.687    368.39848   -383.05514    561.14232    178.08719    590.61195   -383.05514            0   -8.3104632            0            0            0            0            0            0 
10071000    523.50044    62069.753    369.88575   -374.39593    563.40774    189.01181     662.8968   -374.39593            0   -8.4371135            0            0            0            0            0            0 
10072000    611.06285    63695.279    384.51059   -359.39228    585.68419    226.29191    793.92672   -359.39228            0   -8.2217953            0            0            0            0            0            0 
10073000    513.90105    62965.196    401.17236   -383.96516     611.0633    227.09815    699.00464   -383.96516            0   -8.3171273            0            0            0            0            0            0 
10074000    533.08075    61208.824    380.36948   -392.35493    579.37649    187.02156    662.88564   -392.35493            0   -8.5557851            0            0            0            0            0            0 
10075000    393.21015    70916.728    364.16091   -340.49693    554.68769    214.19076    620.86747   -340.49693            0   -7.3845701            0            0            0            0            0            0 
10076000    502.37237    63140.174    400.86253   -381.58444    610.59137    229.00693    691.60882   -381.58444            0   -8.2940783            0            0            0            0            0            0 
10077000    497.16637    62320.809     384.0768   -392.64946    585.02345    192.37399    644.24108   -392.64946            0    -8.403125            0            0            0            0            0            0 
10078000     444.8081    66530.203     376.6696   -363.91308    573.74085    209.82777    641.41384   -363.91308            0   -7.8714557            0            0            0            0            0            0 
10079000    591.32549    62883.898    362.01618    -368.2507    551.42085    183.17015    725.47307    -368.2507            0   -8.3278799            0            0            0            0            0            0 
10080000    537.04942    64077.484    389.51484   -372.04069    593.30664    221.26596      723.141   -372.04069            0   -8.1727545            0            0            0            0            0            0 
10081000    558.99849    61177.258    368.34936   -387.62848    561.06751    173.43902     672.1817   -387.62848            0   -8.5601997            0            0            0            0            0            0 
10082000    420.55883    63926.988    379.45011    -384.8906     577.9761     193.0855    585.17651    -384.8906            0   -8.1919947            0            0            0            0            0            0 
10083000    450.88183    66269.226    382.20546   -364.06261    582.17304    218.11043    653.87361   -364.06261            0   -7.9024545            0            0            0            0            0            0 
10084000    492.49202    63866.908    400.25932   -382.77349    609.67257    226.89908    685.62257   -382.77349            0   -8.1997009            0            0            0            0            0            0 
10085000    511.23344    64939.557    389.21571   -361.39265    592.85102    231.45836    715.63571   -361.39265            0   -8.0642611            0            0            0            0            0            0 
10086000    456.95649    63260.293    388.84942   -381.95668    592.29307    210.33639    631.91827   -381.95668            0   -8.2783295            0            0            0            0            0            0 
10087000    610.91204    66140.783    383.31268   -339.86604    583.85955     243.9935    833.27649   -339.86604            0   -7.9178008            0            0            0            0            0            0 
10088000    439.28193    62956.909    384.24039   -385.10987    585.27264    200.16277    603.49471   -385.10987            0    -8.318222            0            0            0            0            0            0 
10089000    526.71101    62134.717    379.81395   -378.85744     578.5303    199.67286    676.96317   -378.85744            0   -8.4282921            0            0            0            0            0            0 
10090000    532.72538    65869.038    390.39576   -361.13273    594.64846    233.51573    745.26896   -361.13273            0    -7.950466            0            0            0            0            0            0 
10091000    566.28072    59650.569    364.54606   -398.43901    555.27435    156.83535    649.46694   -398.43901            0   -8.7792883            0            0            0            0            0            0 
10092000    513.03547    62875.189    382.43525   -376.05349    582.52306    206.46957    676.90777   -376.05349            0   -8.3290334            0            0            0            0            0            0 
10093000    538.91477    62499.718    413.32407   -380.69781    629.57272     248.8749    740.09263   -380.69781            0   -8.3790706            0            0            0            0            0            0 
10094000    513.94667     62504.17    388.65828   -387.47842    592.00194    204.52352    673.01633   -387.47842            0   -8.3784738            0            0            0            0            0            0 
10095000    356.92452    67659.253    385.55951   -367.83854    587.28191    219.44337    571.63536   -367.83854            0   -7.7401024            0            0            0            0            0            0 
10096000    389.57608    65617.172    374.21039   -367.85328    569.99499    202.14172    574.95011   -367.85328            0   -7.9809831            0            0            0            0            0            0 
10097000    405.93519    63990.371    354.88606   -376.39751     540.5603    164.16279    542.99529   -376.39751            0   -8.1838804            0            0            0            0            0            0 
10098000    488.63661    62198.226     361.2337   -387.65247    550.22899    162.57652    605.81748   -387.65247            0   -8.4196863            0            0            0            0            0            0 
10099000    546.31822    61842.846    392.51915   -375.04508    597.88278     222.8377    715.57001   -375.04508            0     -8.46807            0            0            0            0            0            0 
10100000    491.42222    63851.972    385.71998   -376.93554    587.52634     210.5908    668.21079   -376.93554            0   -8.2016189            0            0            0            0            0            0 
10101000    496.34648    63817.849    363.51774   -379.02489    553.70802    174.68312    636.64166   -379.02489            0   -8.2060043            0            0            0            0            0            0 
10102000     490.6731    66849.175    389.29053   -349.54268    592.96498     243.4223    721.79258   -349.54268            0   -7.8338969            0            0            0            0            0            0 
10103000    457.88748    66064.344    376.84148   -364.09197    574.00266    209.91069    651.07644   -364.09197            0    -7.926962            0            0            0            0            0            0 
10104000    591.07216    61607.503    395.26181    -383.8077     602.0604     218.2527    749.32054    -383.8077            0   -8.5004183            0            0            0            0            0            0 
10105000    457.36351    64587.173    405.08692   -379.77595    617.02593    237.24998     668.0579   -379.77595            0   -8.1082593            0            0            0            0            0            0 
10106000    429.13365     63783.76    374.04892   -373.47694    569.74904     196.2721    595.46111   -373.47694            0   -8.2103899            0            0            0            0            0            0 
10107000    471.07394    61967.303    344.08508    -383.5063    524.10831    140.60201    566.32545    -383.5063            0   -8.4510624            0            0            0            0            0            0 
10108000    500.01244    65060.659    416.33886   -370.18302    634.16482    263.98181     738.4151   -370.18302            0   -8.0492505            0            0            0            0            0            0 
10109000    549.16181    61962.531    399.62927   -378.16566    608.71288    230.54722    726.80276   -378.16566            0   -8.4517133            0            0            0            0            0            0 
10110000    542.33941    61690.195    384.69911   -384.02527    585.97135    201.94608    689.88245   -384.02527            0    -8.489024            0            0            0            0            0            0 
10111000    544.20954    65185.192    375.43886    -359.0684    571.86619    212.79779    730.15558    -359.0684            0   -8.0338728            0            0            0            0            0            0 
10112000    504.11208    63467.662    393.25043   -384.67209    598.99667    214.32458    680.93614   -384.67209            0   -8.2512815            0            0            0            0            0            0 
10113000    645.45036    59005.005    395.81311   -398.77805    602.90013    204.12208    759.54985   -398.77805            0   -8.8753411            0            0            0            0            0            0 
10114000    470.42194    65681.815    398.92439   -364.55263    607.63921    243.08658    693.70466   -364.55263            0   -7.9731284            0            0            0            0            0            0 
10115000    444.13571    64325.179    375.35059   -379.52993    571.73175    192.20182    608.85297   -379.52993            0   -8.1412839            0            0            0            0            0            0 
10116000    418.85632    62736.207     377.9768    -402.9726    575.73197    172.75936    555.98912    -402.9726            0   -8.3474849            0            0            0            0            0            0 
10117000    460.48534    64345.859    375.26957   -375.84542    571.60833    195.76291    627.89081   -375.84542            0   -8.1386674            0            0            0            0            0            0 
10118000    436.12971    62036.487    378.10312   -394.57722    575.92438    181.34716    575.93051   -394.57722            0   -8.4416376            0            0            0            0            0            0 
10119000    501.85926    61013.073    392.90506   -394.99259     598.4706      203.478    650.03894   -394.99259            0   -8.5832351            0            0            0            0            0            0 
10120000    420.12123    62785.075     372.8072   -395.84057    567.85766    172.01709    556.70358   -395.84057            0   -8.3409879            0            0            0            0            0            0 
10121000    546.11142    61659.249    380.15406   -387.79823    579.04836    191.25014    682.33368   -387.79823            0   -8.4932845            0            0            0            0            0            0 
10122000    590.69188    60762.323    362.07601   -389.86853    551.51198    161.64345    685.08869   -389.86853            0   -8.6186558            0            0            0            0            0            0 
10123000    434.09413     64052.29    396.24226   -380.16011    603.55381     223.3937    628.89707   -380.16011            0   -8.1759691            0            0            0            0            0            0 
10124000    528.73405    60472.028    389.73032   -399.30937    593.63486    194.32549    660.62795   -399.30937            0   -8.6600295            0            0            0            0            0            0 
10125000    455.34066    62811.178     383.9671   -399.68859    584.85637    185.16777    602.27648   -399.68859            0   -8.3375214            0            0            0            0            0            0 
10126000    445.45186    64388.745    395.46461   -383.38671     602.3693    218.98259    637.28139   -383.38671            0   -8.1332466            0            0            0            0            0            0 
10127000     514.3916    63042.606    375.86913   -376.39409    572.52157    196.12748    669.06516   -376.39409            0   -8.3069147            0            0            0            0            0            0 
10128000    614.13185    61920.137    381.14542   -378.71174    580.55839    201.84666    756.43332   -378.71174            0   -8.4574998            0            0            0            0            0            0 
10129000    491.48733    61854.564    424.58223   -402.77151    646.72107    243.94956    687.31309   -402.77151            0   -8.4664658            0            0            0            0            0            0 
10130000    580.95447    60827.413    381.72135   -381.00601    581.43564    200.42963    715.79749   -381.00601            0   -8.6094331            0            0            0            0            0            0 
10131000    431.05087    63321.876    385.23892    -395.2601    586.79358    191.53348    589.60233    -395.2601            0   -8.2702784            0            0            0            0            0            0 
10132000    390.69479    62571.503     360.5866   -389.15317    549.24332    160.09015    516.61525   -389.15317            0   -8.3694576            0            0            0            0            0            0 
10133000    455.75904    64897.062    392.60057   -372.90699    598.00681    225.09983     656.4562   -372.90699            0   -8.0695416            0            0            0            0            0            0 
10134000    527.23071    63112.012    364.80237   -379.60565    555.66476    176.05911    661.33489   -379.60565            0   -8.2977793            0            0            0            0            0            0 
10135000    658.66487    57023.136    375.97315   -402.67695    572.68002    170.00307    717.76456   -402.67695            0   -9.1838082            0            0            0            0            0            0 
10136000    453.90717    64965.966      366.326   -374.09904    557.98554    183.88649    613.94628   -374.09904            0   -8.0609829            0            0            0            0            0            0 
10137000    467.51108    62716.578    359.20182   -389.83245    547.13403    157.30159    584.91385   -389.83245            0   -8.3500976            0            0            0            0            0            0 
10138000    506.10658    63466.346    384.20549   -374.68324    585.21948    210.53624    678.98422   -374.68324            0   -8.2514526            0            0            0            0            0            0 
10139000    528.67793    64159.469    387.52144   -367.01672    590.27031    223.25359    717.93755   -367.01672            0   -8.1623111            0            0            0            0            0            0 
10140000    536.35729    61152.708    381.32648   -389.77095    580.83418    191.06324    669.41323   -389.77095            0   -8.5636362            0            0            0            0            0            0 
10141000     504.8665    60507.976    399.41632   -396.69214    608.38851    211.69637    657.21418   -396.69214            0   -8.6548845            0            0            0            0            0            0 
10142000     501.6084    64513.979    375.12581    -373.8294    571.38936    197.55996    669.50836    -373.8294            0   -8.1174585            0            0            0            0            0            0 
10143000    508.22732    66213.921    381.92614   -355.17183    581.74758    226.57575    717.35163   -355.17183            0    -7.909055            0            0            0            0            0            0 
10144000     498.7749    62551.259    374.93683   -384.89283     571.1015    186.20867    641.21406   -384.89283            0   -8.3721664            0            0            0            0            0            0 
10145000    449.47009     64463.82    353.02676   -370.20322    537.72821    167.52499    590.08921   -370.20322            0   -8.1237746            0            0            0            0            0            0 
10146000    581.41705     65028.84    367.89218   -356.19915    560.37113    204.17199    755.57567   -356.19915            0   -8.0531891            0            0            0            0            0            0 
10147000    613.24173    62613.538    418.04795   -371.15387    636.76811    265.61423    825.59851   -371.15387            0   -8.3638389            0            0            0            0            0            0 
10148000    411.94339    64579.827    388.17694    -378.4105    591.26876    212.85826    600.83913    -378.4105            0   -8.1091815            0            0            0            0            0            0 
10149000    488.83114    61668.637     365.1323   -395.20659    556.16731    160.96072    600.60265   -395.20659            0   -8.4919915            0            0            0            0            0            0 
10150000    406.20099    63127.987    386.77303   -389.04324    589.13033    200.08709    574.05885   -389.04324            0   -8.2956795            0            0            0            0            0            0 
10151000    495.54362    61697.939    391.54878   -391.00992    596.40473    205.39481    651.28554   -391.00992            0   -8.4879585            0            0            0            0            0            0 
10152000    438.48984    64133.713    373.64156   -377.07571    569.12855    192.05284    602.18309   -377.07571            0   -8.1655891            0            0            0            0            0            0 
10153000    490.39889    61183.243    344.38246   -394.81577    524.56128    129.74551    567.32591   -394.81577            0   -8.5593623            0            0            0            0            0            0 
10154000    437.65713    64318.439    395.37851   -381.52975    602.23815    220.70841    631.23887   -381.52975            0   -8.1421371            0            0            0            0            0            0 
10155000    520.76681    65873.889     395.3418   -358.21564    602.18224     243.9666    744.26889   -358.21564            0   -7.9498805            0            0            0            0            0            0 
10156000    590.74082     61835.04    385.27276   -379.85088    586.84512    206.99424     739.7247   -379.85088            0   -8.4691389            0            0            0            0            0            0 
10157000    434.52367    66230.685    376.56404   -371.36301    573.58006    202.21705    621.92633   -371.36301            0   -7.9070532            0            0            0            0            0            0 
10158000    468.11927    63247.728    375.50491   -380.47123     571.9668    191.49557    623.29029   -380.47123            0   -8.2799741            0            0            0            0            0            0 
10159000    534.04565    62576.145    390.62456   -373.04406    594.99696    221.95291    709.32771   -373.04406            0   -8.3688368            0            0            0            0            0            0 
10160000    447.28447    66750.703     366.1052   -361.24929    557.64922    196.39993    631.82713   -361.24929            0   -7.8454536            0            0            0            0            0            0 
10161000    515.93868    63365.223     389.5563   -368.85007     593.3698    224.51973    701.30732   -368.85007            0   -8.2646209            0            0            0            0            0            0 
10162000    584.20825    62263.421    393.85812   -377.90562    599.92231    222.01669     752.5059   -377.90562            0   -8.4108701            0            0            0            0            0            0 
10163000    506.43858    65819.149    382.08291     -358.952    581.98637    223.03437    709.16718     -358.952            0   -7.9564922            0            0            0            0            0            0 
10164000    443.66692    65172.306     392.9918   -365.21142    598.60273    233.39131    655.08395   -365.21142            0   -8.0354614            0            0            0            0            0            0 
10165000    486.47373    62103.446    359.26488   -382.35804    547.23009    164.87204    605.47863   -382.35804            0    -8.432536            0            0            0            0            0            0 
10166000    515.10101     66787.21    357.34172    -347.5632    544.30073    196.73753    698.45774    -347.5632            0   -7.8411651            0            0            0            0            0            0 
10167000    578.53298    64925.329    384.65912   -361.05911    585.91044    224.85133    772.64647   -361.05911            0   -8.0660284            0            0            0            0            0            0 
10168000    481.68365    64501.621    405.49977   -372.07838    617.65479    245.57641     698.6914   -372.07838            0   -8.1190137            0            0            0            0            0            0 
10169000    645.48066    55964.893    372.90153   -426.33739    568.00135    141.66396    668.49919   -426.33739            0   -9.3574653            0            0            0            0            0            0 
10170000    360.82795    63938.343    355.16112    -384.4258    540.97927    156.55348    493.01657    -384.4258            0   -8.1905398            0            0            0            0            0            0 
10171000    600.12036      64184.8    383.31401   -364.10974    583.86158    219.75185    781.50619   -364.10974            0   -8.1590897            0            0            0            0            0            0 
10172000    505.51176    61255.661    395.91842   -402.26373    603.06053     200.7968    652.39623   -402.26373            0   -8.5492432            0            0            0            0            0            0 
10173000    389.76354    59829.184    378.61795   -416.43244    576.70857    160.27613    500.36325   -416.43244            0   -8.7530785            0            0            0            0            0            0 
10174000    495.80933    65418.619    392.74748   -362.73751    598.23058    235.49307    708.52663   -362.73751            0   -8.0052064            0            0            0            0            0            0 
10175000    474.39227    65244.776     394.0002   -367.15686    600.13872    232.98186    684.37945   -367.15686            0    -8.026536            0            0            0            0            0            0 
10176000    634.62586    58979.609    373.67438   -389.61553    569.17855    179.56303    725.44097   -389.61553            0   -8.8791627            0            0            0            0            0            0 
10177000    408.83172    66349.542    391.53581   -368.96324    596.38497    227.42173    623.02366   -368.96324            0   -7.8928886            0            0            0            0            0            0 
10178000    513.97214    61252.988    385.75508   -404.37189     587.5798    183.20792     642.3454   -404.37189            0   -8.5496163            0            0            0            0            0            0 
10179000    432.23108    64998.301    370.79735   -369.39535    564.79628    195.40093    605.12727   -369.39535            0   -8.0569728            0            0            0            0            0            0 
10180000    409.61922    63873.932    382.14048   -386.56045    582.07406     195.5136    577.08857   -386.56045            0   -8.1987992            0            0            0            0            0            0 
10181000    488.37902    61847.012    383.89235   -390.98168     584.7425    193.76082     634.2666   -390.98168            0   -8.4674996            0            0            0            0            0            0 
10182000    443.59929    64420.099    380.93104   -376.63031    580.23186    203.60155    620.36356   -376.63031            0   -8.1292881            0            0            0            0            0            0 
10183000    453.92125    63397.276    378.30244   -381.28699    576.22798    194.94099    614.62943   -381.28699            0   -8.2604424            0            0            0            0            0            0 
10184000    513.04468    64874.647    370.67738   -368.55277    564.61353    196.06077    681.46782   -368.55277            0   -8.0723297            0            0            0            0            0            0 
10185000    508.06433    66515.606    379.03058   -352.75999    577.33708    224.57709    717.43093   -352.75999            0   -7.8731831            0            0            0            0            0            0 
10186000    603.74591    60906.351    395.42077   -380.95017    602.30251    221.35234    757.63365   -380.95017            0   -8.5982749            0            0            0            0            0            0 
10187000    522.11262    63966.762    372.48567   -370.72438    567.36791    196.64353    683.71697   -370.72438            0    -8.186901            0            0            0            0            0            0 
10188000    456.21008    65293.341    378.95613   -372.05256    577.22368    205.17112    639.59097   -372.05256            0   -8.0205659            0            0            0            0            0            0 
10189000    385.95651    64710.793    396.37562   -390.78699    603.75695    212.96996    577.21276   -390.78699            0   -8.0927697            0            0            0            0            0            0 
10190000    594.22543    63514.715    380.71362   -362.13378    579.90068     217.7669    768.19611   -362.13378            0   -8.2451687            0            0            0            0            0            0 
10191000    545.86364    63767.558    381.13288   -362.02561    580.53929    218.51368    726.15836   -362.02561            0    -8.212476            0            0            0            0            0            0 
10192000    408.69988    65342.327    377.92194   -375.70496    575.64841    199.94345    589.41433   -375.70496            0   -8.0145531            0            0            0            0            0            0 
10193000    483.73086     63430.99    380.88068   -371.86498    580.15514    208.29016    655.77793   -371.86498            0   -8.2560519            0            0            0            0            0            0 
10194000    477.01787     66006.83    388.57095   -356.34285    591.86892    235.52607    694.72347   -356.34285            0   -7.9338691            0            0            0            0            0            0 
10195000    589.56508    61271.142    371.45423   -379.82849    565.79684    185.96835       712.79   -379.82849            0   -8.5470832            0            0            0            0            0            0 
10196000    491.71665    61256.593    371.61415    -395.2647    566.04042    170.77572    610.05795    -395.2647            0   -8.5491131            0            0            0            0            0            0 
10197000    620.18944    64052.048    412.30996   -355.01457    628.02803    273.01347    852.35315   -355.01457            0       -8.176            0            0            0            0            0            0 
10198000    503.66427    63880.375    387.61523   -370.33904    590.41316    220.07412    689.30273   -370.33904            0   -8.1979724            0            0            0            0            0            0 
10199000    554.91134    62364.752    397.07939   -385.54421    604.82892    219.28471    723.99096   -385.54421            0    -8.397204            0            0            0            0            0            0 
10200000    476.71547    64042.624    382.62651   -375.60074    582.81438    207.21364    652.46398   -375.60074            0   -8.1772031            0            0            0            0            0            0 
10201000    516.56826    64069.256    368.85194   -370.41651    561.83304    191.41653    674.08984   -370.41651            0    -8.173804            0            0            0            0            0            0 
10202000    440.21073    63021.084    369.60897   -391.94648    562.98615    171.03966    575.63641   -391.94648            0   -8.3097515            0            0            0            0            0            0 
10203000    465.65145    61733.218    357.22347   -384.27716    544.12062    159.84347    579.07677   -384.27716            0   -8.4831078            0            0            0            0            0            0 
10204000    508.95922    65658.806    380.71083   -363.36038    579.89643    216.53605    703.89826   -363.36038            0   -7.9759225            0            0            0            0            0            0 
10205000    622.61017    63752.268    388.88968   -364.55675     592.3544    227.79766    806.67658   -364.55675            0   -8.2144457            0            0            0            0            0            0 
10206000    668.22605    57623.715     382.4731   -405.01796     582.5807    177.56274     739.1284   -405.01796            0   -9.0880907            0            0            0            0            0            0 
10207000    375.71826    63964.667    379.42221   -388.41206    577.93361    189.52155    540.01374   -388.41206            0   -8.1871691            0            0            0            0            0            0 
10208000    518.25612      65556.1    369.80994   -351.07959    563.29226    212.21267      707.701   -351.07959            0   -7.9884183            0            0            0            0            0            0 
10209000    526.80824    66385.119    394.26997   -352.46097    600.54963    248.08865    758.12272   -352.46097            0   -7.8886587            0            0            0            0            0            0 
10210000    532.12664    64670.907    388.81349   -369.44256    592.23834    222.79579    724.67574   -369.44256            0   -8.0977609            0            0            0            0            0            0 
10211000    482.86999    62495.437    394.21016   -389.13749    600.45853    211.32104    651.42413   -389.13749            0   -8.3796445            0            0            0            0            0            0 
10212000    437.18567     64852.13    392.50406   -376.07435     597.8598    221.78545    635.27644   -376.07435            0   -8.0751325            0            0            0            0            0            0 
10213000    483.19349    67917.333    367.65506   -350.64514    560.00995    209.36481     687.9702   -350.64514            0   -7.7106907            0            0            0            0            0            0 
10214000    449.53648    65670.002    363.30719   -360.98489     553.3873    192.40241    622.93681   -360.98489            0   -7.9745626            0            0            0            0            0            0 
10215000    585.12354    61076.377    386.57748   -387.29037    588.83248    201.54211    722.73289   -387.29037            0   -8.5743387            0            0            0            0            0            0 
10216000    553.83673    64361.372    370.50981   -362.40262     564.3583    201.95568    721.81154   -362.40262            0   -8.1367057            0            0            0            0            0            0 
10217000    517.69975    64799.623    388.95414   -361.21541    592.45259    231.23718     720.4821   -361.21541            0   -8.0816758            0            0            0            0            0            0 
10218000    638.41764    61216.076    391.84443   -379.17663    596.85506    217.67842    787.64088   -379.17663            0   -8.5547716            0            0            0            0            0            0 
10219000    621.73705    60560.434    395.35992   -388.11302    602.20983    214.09681    763.22232   -388.11302            0   -8.6473876            0            0            0            0            0            0 
10220000     505.8097    64927.253    361.18722   -363.23041    550.15818    186.92778    665.87766   -363.23041            0   -8.0657893            0            0            0            0            0            0 
10221000     484.5147    65104.414    372.86016   -371.47633    567.93833      196.462    656.49955   -371.47633            0   -8.0438408            0            0            0            0            0            0 
10222000     540.5064    61810.928    364.51757   -389.62794    555.23095    165.60301    652.84195   -389.62794            0   -8.4724427            0            0            0            0            0            0 
10223000    501.27812    63616.111    376.71468   -388.67317    573.80951    185.13635    650.21002   -388.67317            0   -8.2320271            0            0            0            0            0            0 
10224000    347.42415    68002.261    372.51424   -368.34017    567.41144    199.07127    543.62681   -368.34017            0   -7.7010608            0            0            0            0            0            0 
10225000    489.17424    63005.264    368.61011   -384.19779    561.46468    177.26689    626.75303   -384.19779            0   -8.3118379            0            0            0            0            0            0 
10226000    443.20615    65837.049    391.58609   -368.30707    596.46155    228.15448    653.70588   -368.30707            0    -7.954329            0            0            0            0            0            0 
10227000    583.67536    61296.685    389.31981   -387.37379    593.00957    205.63579    727.41195   -387.37379            0   -8.5435215            0            0            0            0            0            0 
10228000    477.65023      65163.9    374.28571   -373.56686    570.10973    196.54286    650.47711   -373.56686            0   -8.0364979            0            0            0            0            0            0 
10229000    452.67566    60741.091    390.18088   -410.02316    594.32114    184.29799    585.29914   -410.02316            0   -8.6216684            0            0            0            0            0            0 
10230000    473.90922    65666.934    379.37225   -376.98791    577.85751     200.8696     654.7253   -376.98791            0   -7.9749352            0            0            0            0            0            0 
10231000    464.87363    66387.679    369.83282   -358.36947    563.32711    204.95764    655.04652   -358.36947            0   -7.8883545            0            0            0            0            0            0 
10232000    503.81497     64323.94    371.84182   -366.88544    566.38721    199.50177    672.12993   -366.88544            0   -8.1414407            0            0            0            0            0            0 
10233000     445.3927     63047.37    395.00656   -387.00864     601.6716    214.66296    624.19318   -387.00864            0   -8.3062869            0            0            0            0            0            0 
10234000    481.88658    64336.912    381.41278   -369.05279    580.96563    211.91284    664.06117   -369.05279            0   -8.1397993            0            0            0            0            0            0 
10235000    465.80508    62411.649    391.73693   -387.09676    596.69132    209.59456    633.57494   -387.09676            0   -8.3908942            0            0            0            0            0            0 
10236000    549.25181      59110.4    391.03946   -403.88473    595.62893     191.7442    665.23471   -403.88473            0   -8.8595162            0            0            0            0            0            0 
10237000    553.36948    63933.354    357.39585   -358.94066    544.38319    185.44252    701.40556   -358.94066            0   -8.1911789            0            0            0            0            0            0 
10238000    606.12304    63198.263    404.28408   -377.49599    615.80306    238.30707    796.95968   -377.49599            0   -8.2864547            0            0            0            0            0            0 
10239000    531.98439    63289.682    374.42673   -379.39413    570.32453    190.93039    681.96002   -379.39413            0   -8.2744854            0            0            0            0            0            0 
10240000    481.17405    65088.602    361.90234   -365.14484    551.24745    186.10261    642.85731   -365.14484            0    -8.045795            0            0            0            0            0            0 
10241000    551.83839    58246.036    385.02676   -424.06876    586.47043    162.40167    631.16558   -424.06876            0   -8.9909903            0            0            0            0            0            0 
10242000     599.0312    63808.409      406.811   -366.92484    619.65205    252.72721    810.17378   -366.92484            0   -8.2072183            0            0            0            0            0            0 
10243000    541.94773    64989.461    389.55047   -360.63137    593.36091    232.72954    746.39011   -360.63137            0   -8.0580687            0            0            0            0            0            0 
10244000    555.63345    63259.473    391.28286    -373.0166    595.99968    222.98308    735.59635    -373.0166            0   -8.2784367            0            0            0            0            0            0 
10245000    473.57512    65586.987     381.3763   -369.41078    580.91006    211.49928    664.48284   -369.41078            0   -7.9846562            0            0            0            0            0            0 
10246000    527.02342    61978.167    366.12167   -383.36403    557.67431    174.31028    650.68042   -383.36403            0   -8.4495811            0            0            0            0            0            0 
10247000    473.34627    64160.634    381.04364   -375.48798    580.40336    204.91538    647.83355   -375.48798            0   -8.1621628            0            0            0            0            0            0 
10248000    377.09712    65626.823    360.75316   -370.03464    549.49703    179.46239    540.38201   -370.03464            0   -7.9798095            0            0            0            0            0            0 
10249000      452.859    62695.409    369.96107   -394.80463    563.52246    168.71783    582.78866   -394.80463            0    -8.352917            0            0            0            0            0            0 
10250000    433.95262    65330.213    366.70141   -365.87207    558.55737    192.68529    606.14413   -365.87207            0   -8.0160391            0            0            0            0            0            0 
10251000    562.31587    62025.842    367.87196   -378.53295    560.34034    181.80739    690.46893   -378.53295            0   -8.4430864            0            0            0            0            0            0 
10252000    561.08244    63511.823     386.6364    -370.0112    588.92222    218.91101    738.61631    -370.0112            0   -8.2455442            0            0            0            0            0            0 
10253000     541.8666    61840.136    389.96389   -390.59058    593.99063    203.40005    692.09596   -390.59058            0   -8.4684411            0            0            0            0            0            0 
10254000    552.70879    63361.619    358.81733   -372.24848    546.54838     174.2999    685.03832   -372.24848            0    -8.265091            0            0            0            0            0            0 
10255000    455.11787    65315.131    392.92174   -373.05631    598.49601    225.43971    658.96414   -373.05631            0   -8.0178902            0            0            0            0            0            0 
10256000    501.38305    66890.027    359.75572     -353.407    547.97774    194.57073    683.68115     -353.407            0   -7.8291124            0            0            0            0            0            0 
10257000    453.38095    62485.294    359.36068   -384.04054    547.37601    163.33547    576.49423   -384.04054            0   -8.3810048            0            0            0            0            0            0 
10258000    610.68175    59182.796    390.01175   -404.95507    594.06353    189.10846    716.20033   -404.95507            0   -8.8486786            0            0            0            0            0            0 
10259000    469.43565    65933.287    353.66859   -355.67451    538.70585    183.03134    634.42628   -355.67451            0   -7.9427185            0            0            0            0            0            0 
10260000    495.74416     64329.13    367.73519   -370.32602    560.13202    189.80599    654.90046   -370.32602            0   -8.1407838            0            0            0            0            0            0 
10261000    473.97336    62572.376    364.81903   -380.11418    555.69014    175.57596    608.10221   -380.11418            0   -8.3693409            0            0            0            0            0            0 
10262000    533.38143    59635.309     383.0471   -404.44889    583.45502    179.00613    642.89853   -404.44889            0   -8.7815349            0            0            0            0            0            0 
10263000    397.90019    65224.884    387.92259    -382.5003    590.88134    208.38104    586.87883    -382.5003            0   -8.0289839            0            0            0            0            0            0 
10264000    507.82909    64517.947    362.58521   -364.17239     552.2876    188.11521    665.94586   -364.17239            0   -8.1169592            0            0            0            0            0            0 
10265000    490.30702    63934.821    362.68761   -369.31987    552.44357     183.1237    640.29763   -369.31987            0   -8.1909911            0            0            0            0            0            0 
10266000    609.84845    61682.756    388.89779   -370.23873    592.36676    222.12803    770.73533   -370.23873            0   -8.4900478            0            0            0            0            0            0 
10267000     464.7209    66139.793    366.18252   -357.88861      557.767    199.87839    648.13936   -357.88861            0   -7.9179193            0            0            0            0            0            0 
10268000    517.09104    63146.982    385.79146   -381.11706    587.63522    206.51816    682.72486   -381.11706            0   -8.2931841            0            0            0            0            0            0 
10269000    506.44793    63657.463    375.94359   -379.47344    572.63499    193.16155    663.33707   -379.47344            0   -8.2266795            0            0            0            0            0            0 
10270000    417.97732    66868.039    356.44571    -361.2936    542.93594    181.64234    589.25455    -361.2936            0   -7.8316869            0            0            0            0            0            0 
10271000    471.76809    63674.468     384.0884   -381.65958    585.04112    203.38154    641.47803   -381.65958            0   -8.2244825            0            0            0            0            0            0 
10272000    521.18936    63605.962    368.35106   -367.31121     561.0701    193.75889    677.22858   -367.31121            0   -8.2333405            0            0            0            0            0            0 
10273000    434.80541    64501.283    376.09687   -378.07681    572.86848    194.79167    603.80662   -378.07681            0   -8.1190562            0            0            0            0            0            0 
10274000    486.17675    62551.713    371.94752   -379.40269    566.54821    187.14551     630.6615   -379.40269            0   -8.3721056            0            0            0            0            0            0 
10275000    493.35026    63574.194    368.01433   -377.36027     560.5572    183.19693    640.61373   -377.36027            0   -8.2374548            0            0            0            0            0            0 
10276000    564.16976    65174.377    372.41495   -357.43635    567.26019    209.82384    746.06801   -357.43635            0    -8.035206            0            0            0            0            0            0 
10277000    506.36837    67245.447    379.68225   -356.39271     578.3297    221.93699    718.53543   -356.39271            0   -7.7877324            0            0            0            0            0            0 
10278000    482.04043    60740.454    412.21962   -401.19347    627.89043    226.69696    653.70631   -401.19347            0   -8.6217588            0            0            0            0            0            0 
10279000    381.63449    63685.844    394.49029   -394.89438    600.88522    205.99084    560.45017   -394.89438            0   -8.2230133            0            0            0            0            0            0 
10280000    493.25344    64722.997    376.28264   -366.36098    573.15144    206.79046    672.38152   -366.36098            0   -8.0912437            0            0            0            0            0            0 
10281000    483.81689     62843.42    355.72856   -388.26627    541.84359    153.57732    596.99879   -388.26627            0   -8.3332439            0            0            0            0            0            0 
10282000    443.32367    68350.474    391.02843   -346.99068    595.61213    248.62145    690.53603   -346.99068            0   -7.6618276            0            0            0            0            0            0 
10283000      401.178    64541.985    380.92942   -376.40218    580.22939     203.8272    581.44749   -376.40218            0   -8.1139361            0            0            0            0            0            0 
10284000    440.79087    62622.224     355.5991   -391.10078    541.64639    150.54562     553.1115   -391.10078            0   -8.3626788            0            0            0            0            0            0 
10285000    443.86244    63939.096    389.24587   -377.78824    592.89695    215.10871    629.00428   -377.78824            0   -8.1904433            0            0            0            0            0            0 
10286000    534.77559    60980.227    384.19412   -390.76205    585.20215     194.4401    670.03424   -390.76205            0   -8.5878583            0            0            0            0            0            0 
10287000    433.16628    64802.607    393.87297   -383.02454    599.94492    216.92038    626.29698   -383.02454            0   -8.0813036            0            0            0            0            0            0 
10288000    524.10209    62502.577    389.11158   -380.45388     592.6924    212.23852    689.97643   -380.45388            0   -8.3786872            0            0            0            0            0            0 
10289000    423.85709    62974.503    401.33332   -387.78584    611.30849    223.52265    612.80086   -387.78584            0   -8.3158981            0            0            0            0            0            0 
10290000    374.98942    67661.875    371.65048   -358.08337    566.09576    208.01238    578.04408   -358.08337            0   -7.7398025            0            0            0            0            0            0 
10291000    560.86216     62116.89    392.18944   -389.06771    597.38057    208.31287    716.40414   -389.06771            0   -8.4307109            0            0            0            0            0            0 
10292000    577.23959    60438.994    379.14955   -397.56743    577.51829    179.95085    688.75334   -397.56743            0   -8.6647628            0            0            0            0            0            0 
10293000    466.84604     66715.94    371.46144   -358.79862    565.80781     207.0092    661.24271   -358.79862            0   -7.8495416            0            0            0            0            0            0 
10294000    514.49419    63967.423    351.54484   -366.67108    535.47097    168.79989    648.77113   -366.67108            0   -8.1868164            0            0            0            0            0            0 
10295000    373.49497    65940.152    366.60612   -372.45423    558.41222      185.958    545.13671   -372.45423            0   -7.9418917            0            0            0            0            0            0 
10296000    512.01101    60830.749    384.77597   -405.51229    586.08842    180.57613    634.80878   -405.51229            0    -8.608961            0            0            0            0            0            0 
10297000    472.73854     62112.52    373.74764   -387.88914    569.29013      181.401    609.62997   -387.88914            0   -8.4313041            0            0            0            0            0            0 
10298000    458.41323    61978.333    379.79317   -392.05997    578.49865    186.43868      600.794   -392.05997            0   -8.4495584            0            0            0            0            0            0 
10299000    495.07942    66036.037    376.17399   -354.63613    572.98594    218.34981    695.14489   -354.63613            0     -7.93036            0            0            0            0            0            0 
10300000    513.28933    62325.457    390.25015   -386.61341    594.42667    207.81326    674.36907   -386.61341            0   -8.4024983            0            0            0            0            0            0 
10301000    412.28094     62126.49    389.54922   -396.91203    593.35901    196.44699     569.9946   -396.91203            0   -8.4294082            0            0            0            0            0            0 
10302000    388.06866    63627.479    363.32494   -383.02219    553.41434    170.39214    530.49717   -383.02219            0   -8.2305562            0            0            0            0            0            0 
10303000     583.6504    58088.611    375.54221   -413.83977    572.02362    158.18385    652.63076   -413.83977            0   -9.0153567            0            0            0            0            0            0 
10304000    517.56553    62932.692    380.30838   -376.67504    579.28341    202.60837    677.63455   -376.67504            0   -8.3214229            0            0            0            0            0            0 
10305000    425.86675    62357.821    362.70053   -397.97442    552.46325    154.48882    541.78264   -397.97442            0   -8.3981373            0            0            0            0            0            0 
10306000     452.9587     63966.57    383.15769   -378.44916    583.62347     205.1743     627.7335   -378.44916            0   -8.1869255            0            0            0            0            0            0 
10307000    509.41768    60034.859    388.66533   -405.73706    592.01267    186.27562    632.29466   -405.73706            0   -8.7230911            0            0            0            0            0            0 
10308000    475.82915     63382.25    378.17633   -377.88557    576.03589    198.15032    637.99018   -377.88557            0   -8.2624007            0            0            0            0            0            0 
10309000     494.2124    63677.501    376.61723   -379.44031    573.66108    194.22076     653.1815   -379.44031            0   -8.2240908            0            0            0            0            0            0 
10310000    437.25759    65143.002    377.57774   -369.18236    575.12413    205.94176    621.35566   -369.18236            0    -8.039076            0            0            0            0            0            0 
10311000    461.16405    62080.591    387.75333   -392.98933    590.62353     197.6342     615.1637   -392.98933            0   -8.4356405            0            0            0            0            0            0 
10312000    402.40618    64934.547    386.30293   -378.72984    588.41428    209.68444    590.76461   -378.72984            0   -8.0648833            0            0            0            0            0            0 
10313000    506.75388     62323.05    384.19985    -386.7336    585.21088    198.47728    659.07488    -386.7336            0   -8.4028228            0            0            0            0            0            0 
10314000     448.3019    67499.609     370.4655   -354.15112     564.2908    210.13968    651.45371   -354.15112            0   -7.7584085            0            0            0            0            0            0 
10315000     548.8167    61815.397    382.62902   -387.63084     582.8182    195.18736    689.95339   -387.63084            0   -8.4718302            0            0            0            0            0            0 
10316000    524.71114    62558.872    371.22735   -383.24225    565.45124    182.20899    660.93286   -383.24225            0   -8.3711475            0            0            0            0            0            0 
10317000    522.99581    60090.053    373.33321   -398.58826    568.65888    170.07062    628.39894   -398.58826            0   -8.7150787            0            0            0            0            0            0 
10318000    456.84594    63725.553    386.15538   -377.08278    588.18953    211.10675     635.6865   -377.08278            0   -8.2178894            0            0            0            0            0            0 
10319000    475.00196    62763.508    381.33305   -380.05709    580.84419     200.7871    635.57606   -380.05709            0    -8.343854            0            0            0            0            0            0 
10320000    463.08067    60968.562    381.96405   -399.25493    581.80532    182.55039    594.30503   -399.25493            0   -8.5895014            0            0            0            0            0            0 
10321000    526.60231    65914.541    370.84537   -362.02007    564.86941    202.84934    709.07002   -362.02007            0   -7.9449775            0            0            0            0            0            0 
10322000    482.08907    62541.898    388.86777   -390.27273    592.32103    202.04831     641.7663   -390.27273            0   -8.3734194            0            0            0            0            0            0 
10323000    449.68285     63344.94    355.41593   -369.59909     541.3674    171.76831    587.19476   -369.59909            0   -8.2672672            0            0            0            0            0            0 
10324000    481.03464    62704.438    378.25787     -395.759    576.16009    180.40109    620.29761     -395.759            0   -8.3517142            0            0            0            0            0            0 
10325000    402.50748    65709.199     391.2928    -385.6128    596.01482    210.40202    596.12545    -385.6128            0   -7.9698056            0            0            0            0            0            0 
10326000    536.56693    59987.071    383.63202   -401.50047    584.34597     182.8455    652.26102   -401.50047            0   -8.7300403            0            0            0            0            0            0 
10327000    570.90014    62746.083    382.00421   -372.26484     581.8665    209.60165     732.0251   -372.26484            0   -8.3461711            0            0            0            0            0            0 
10328000     558.2011    62923.267    393.19428   -374.65742    598.91114    224.25372    736.49885   -374.65742            0   -8.3226693            0            0            0            0            0            0 
10329000    545.08015    65125.333    380.48452   -353.72639    579.55171    225.82531    743.53491   -353.72639            0   -8.0412571            0            0            0            0            0            0 
10330000    514.12881    64573.189    387.93754   -366.55446    590.90411    224.34965    708.52209   -366.55446            0   -8.1100152            0            0            0            0            0            0 
10331000    489.99405    64657.433    368.03178   -365.88453    560.58378    194.69925    656.74518   -365.88453            0   -8.0994484            0            0            0            0            0            0 
10332000     459.0967    65799.837    387.56685   -367.55918    590.33948     222.7803    663.34011   -367.55918            0   -7.9588274            0            0            0            0            0            0 
10333000    572.90627    58987.551    381.36932   -404.91473    580.89944    175.98471    668.84047   -404.91473            0   -8.8779672            0            0            0            0            0            0 
10334000    463.38343     63897.08    373.13536   -383.10517    568.35751    185.25234    617.06702   -383.10517            0   -8.1958291            0            0            0            0            0            0 
10335000    471.52121    64595.443    384.68574   -376.67751    585.95099    209.27348    653.47394   -376.67751            0   -8.1072212            0            0            0            0            0            0 
10336000    504.50849    63627.645    372.50312   -372.21728    567.39449    195.17721    663.33281   -372.21728            0   -8.2305347            0            0            0            0            0            0 
10337000    519.09854     60046.56    377.10291   -395.68676    574.40087    178.71411    633.29778   -395.68676            0   -8.7213913            0            0            0            0            0            0 
10338000    430.79053    65874.811    366.69455   -376.93272    558.54691     181.6142    595.48178   -376.93272            0   -7.9497693            0            0            0            0            0            0 
10339000    457.58799    64330.528    390.85079   -377.98909    595.34155    217.35246    646.65912   -377.98909            0   -8.1406069            0            0            0            0            0            0 
10340000    475.20455    63727.619    391.80457   -384.87455    596.79435    211.91981    653.57585   -384.87455            0    -8.217623            0            0            0            0            0            0 
10341000    604.34871    62672.336    368.10808   -370.63326        560.7    190.06674    742.44856   -370.63326            0    -8.355992            0            0            0            0            0            0 
10342000    535.88369    63802.298     385.3698   -371.53591    586.99295    215.45704    714.09202   -371.53591            0   -8.2080044            0            0            0            0            0            0 
10343000    539.36375    58433.029    364.07761   -415.61298    554.56081    138.94783    598.58596   -415.61298            0   -8.9622179            0            0            0            0            0            0 
10344000    500.16448    65362.882    403.28259   -361.27933    614.27759    252.99826    729.78035   -361.27933            0   -8.0120326            0            0            0            0            0            0 
10345000    529.86656    62040.212    356.14749   -377.92818     542.4817    164.55352    643.97299   -377.92818            0   -8.4411308            0            0            0            0            0            0 
10346000    475.48597    62478.605     375.7424   -390.37202    572.32854    181.95653    615.21286   -390.37202            0    -8.381902            0            0            0            0            0            0 
10347000    442.91119    64602.415    380.65861   -384.23112    579.81688    195.58577    612.87896   -384.23112            0   -8.1063463            0            0            0            0            0            0 
10348000    486.55965    62095.846    401.53015   -395.54802    611.60828    216.06026    656.69074   -395.54802            0   -8.4335681            0            0            0            0            0            0 
10349000    681.07158    59948.536    377.10635    -380.4874     574.4061     193.9187    789.37135    -380.4874            0    -8.735652            0            0            0            0            0            0 
10350000    471.79814    64914.627    382.27485   -364.26802    582.27873    218.01071    664.66826   -364.26802            0   -8.0673581            0            0            0            0            0            0 
10351000    548.14136    62420.493    363.73203   -377.58612    554.03443    176.44831     675.4427   -377.58612            0   -8.3897053            0            0            0            0            0            0 
10352000    538.02817    62737.283    393.95374   -379.00763    600.06794    221.06032    713.33399   -379.00763            0   -8.3473418            0            0            0            0            0            0 
10353000    443.50265    62379.826    369.38781   -389.85485    562.64927    172.79442    576.26908   -389.85485            0   -8.3951748            0            0            0            0            0            0 
[...]
14939000    563.54969    64379.248    364.86481   -361.72804    555.75987    194.03183    723.15162   -361.72804            0   -8.1344465            0            0            0            0            0            0 
14940000    525.70795    62809.396    368.15396   -377.07644    560.76987    183.69343    665.24749   -377.07644            0    -8.337758            0            0            0            0            0            0 
14941000     403.2647    64352.911    365.63795   -386.59152     556.9375    170.34599    548.81845   -386.59152            0   -8.1377756            0            0            0            0            0            0 
14942000    512.42878     61370.26    375.28172   -388.45723    571.62685    183.16962     641.8048   -388.45723            0   -8.5332788            0            0            0            0            0            0 
14943000    425.47095    63739.597    368.75108   -378.88251     561.6794     182.7969    578.30476   -378.88251            0   -8.2160787            0            0            0            0            0            0 
14944000    630.86269    62592.352    395.48686   -363.05351    602.40318    239.34967    815.22968   -363.05351            0   -8.3666698            0            0            0            0            0            0 
14945000      510.171    66293.351     392.8629   -350.70879    598.40639     247.6976    740.94139   -350.70879            0   -7.8995787            0            0            0            0            0            0 
14946000    582.52034    61195.981     410.9577   -382.32006    625.96827     243.6482    763.53631   -382.32006            0   -8.5575807            0            0            0            0            0            0 
14947000    525.19667    63032.611    379.05748    -374.5612    577.37806    202.81686     685.6123    -374.5612            0   -8.3082318            0            0            0            0            0            0 
14948000    403.41927    64998.601    376.03857   -374.77668    572.77967    198.00299    580.41941   -374.77668            0   -8.0569356            0            0            0            0            0            0 
14949000    492.76587    60859.985    368.14683    -398.7844    560.75903    161.97463    599.34398    -398.7844            0   -8.6048255            0            0            0            0            0            0 
14950000    477.97295    62866.847    356.36592   -387.49118    542.81441    155.32322    593.55199   -387.49118            0   -8.3301386            0            0            0            0            0            0 
14951000    469.92154    66309.369    403.66819   -361.17661    614.86494    253.68833     708.1279   -361.17661            0   -7.8976705            0            0            0            0            0            0 
14952000    550.52995    63541.377    378.90219   -366.80118    577.14152    210.34035    720.50864   -366.80118            0   -8.2417091            0            0            0            0            0            0 
14953000    586.28987    61060.777    381.77482   -385.79242    581.51709    195.72467    717.82095   -385.79242            0   -8.5765294            0            0            0            0            0            0 
14954000    525.44752    64292.382    392.84362   -369.77954    598.37701    228.59747    721.27727   -369.77954            0   -8.1454369            0            0            0            0            0            0 
14955000    498.31563    62761.904    383.58761   -384.85504    584.27833    199.42329    655.54055   -384.85504            0   -8.3440672            0            0            0            0            0            0 
14956000    482.26194    63923.648     376.7525   -379.95971    573.86712    193.90741    643.50132   -379.95971            0   -8.1924227            0            0            0            0            0            0 
14957000    485.40223    67795.801    382.00387   -345.37982    581.86598    236.48616    716.41898   -345.37982            0    -7.724513            0            0            0            0            0            0 
14958000    514.79296    61161.116    374.38659   -397.67161    570.26339    172.59177    631.77275   -397.67161            0   -8.5624589            0            0            0            0            0            0 
14959000    508.84562    64625.394    395.22349   -372.70703    602.00203      229.295     708.8795   -372.70703            0   -8.1034639            0            0            0            0            0            0 
14960000     510.1427    60391.624    417.51237   -406.39007    635.95232    229.56225    678.87037   -406.39007            0   -8.6715593            0            0            0            0            0            0 
14961000    545.09229    63836.743    379.44142   -374.67154    577.96286    203.29132    710.76866   -374.67154            0   -8.2035756            0            0            0            0            0            0 
14962000    518.04288    63470.619    382.59372   -373.02608    582.76443    209.73835    689.26675   -373.02608            0   -8.2508971            0            0            0            0            0            0 
14963000    479.09626    62570.716    380.36682   -385.90371    579.37244    193.46873    630.65831   -385.90371            0    -8.369563            0            0            0            0            0            0 
14964000    446.19603    63328.512    354.98993    -384.7309    540.71852    155.98762    568.08597    -384.7309            0   -8.2694118            0            0            0            0            0            0 
14965000    503.26366    63355.453    360.21775   -368.58831    548.68149    180.09318    645.09587   -368.58831            0   -8.2658953            0            0            0            0            0            0 
14966000    595.37866    65700.992     399.4424   -347.03757    608.42824    261.39067    831.87154   -347.03757            0   -7.9708012            0            0            0            0            0            0 
14967000    513.06865    62845.543    381.35038   -383.32948    580.87059    197.54111    667.78792   -383.32948            0   -8.3329623            0            0            0            0            0            0 
14968000    386.32948    65313.243    367.47197   -375.21328    559.73108     184.5178    552.50693   -375.21328            0    -8.018122            0            0            0            0            0            0 
14969000    487.33472    63344.699    389.25597   -379.96643    592.91233     212.9459    663.15422   -379.96643            0   -8.2672987            0            0            0            0            0            0 
14970000    451.55154    62565.451    395.65196   -396.57628    602.65467     206.0784    618.09792   -396.57628            0   -8.3702672            0            0            0            0            0            0 
14971000    461.85113    65216.724    376.11371   -363.43214    572.89412    209.46198    648.73738   -363.43214            0   -8.0299885            0            0            0            0            0            0 
14972000    520.47752    60913.195    387.15647   -398.90718    589.71439    190.80721    653.17678   -398.90718            0   -8.5973088            0            0            0            0            0            0 
14973000    520.59361    62461.559    398.13067   -388.30434    606.43023    218.12589    692.35427   -388.30434            0   -8.3841895            0            0            0            0            0            0 
14974000    535.04915    64836.468    385.74725   -351.35211    587.56787    236.21576      742.144   -351.35211            0   -8.0770832            0            0            0            0            0            0 
14975000    539.54993    60703.266     370.5428   -388.91565    564.40855    175.49289    653.15368   -388.91565            0   -8.6270406            0            0            0            0            0            0 
14976000    473.42444     65362.85    350.18284   -361.84254    533.39638    171.55384    622.84575   -361.84254            0   -8.0120366            0            0            0            0            0            0 
14977000    566.96398    60308.361    397.18685   -400.81972     604.9926    204.17288    702.83788   -400.81972            0   -8.6835314            0            0            0            0            0            0 
14978000    509.76727    64484.623    386.65297   -363.46841    588.94745    225.47904    704.88564   -363.46841            0   -8.1211539            0            0            0            0            0            0 
14979000    526.15961    64018.847    362.80491   -367.67669    552.62224    184.94555    676.19406   -367.67669            0   -8.1802402            0            0            0            0            0            0 
14980000     476.8614    61880.617    385.15526   -387.68365    586.66616    198.98251    629.33339   -387.68365            0   -8.4629011            0            0            0            0            0            0 
14981000    390.38942    62237.459    381.82643   -394.06092    581.59571    187.53479    541.87936   -394.06092            0   -8.4143786            0            0            0            0            0            0 
14982000    503.42865    61721.736    370.86044   -393.64088    564.89238     171.2515     624.4119   -393.64088            0   -8.4846859            0            0            0            0            0            0 
14983000    442.05862    64683.267    355.10724   -369.91903     540.8972    170.97817    587.98935   -369.91903            0   -8.0962136            0            0            0            0            0            0 
14984000    437.14361    64668.829    392.36432   -378.34442    597.64695    219.30253    631.58515   -378.34442            0   -8.0980212            0            0            0            0            0            0 
14985000    536.76112    63908.413    401.13892     -367.732    611.01237    243.28037    743.56248     -367.732            0   -8.1943757            0            0            0            0            0            0 
14986000    478.32765    64583.608    391.92889   -374.61596     596.9837    222.36774    672.89771   -374.61596            0   -8.1087068            0            0            0            0            0            0 
14987000    552.41587    64515.245    401.17471   -368.82144    611.06688    242.24544    762.00727   -368.82144            0   -8.1172991            0            0            0            0            0            0 
14988000    475.87151    62040.984    374.65753   -388.26274    570.67608    182.41335    612.98384   -388.26274            0   -8.4410258            0            0            0            0            0            0 
14989000      433.436    62992.147    387.13171   -397.79445    589.67668    191.88222    590.06941   -397.79445            0   -8.3135687            0            0            0            0            0            0 
14990000     491.0753    62738.403    367.51285   -386.82059    559.79335    172.97276     622.2945   -386.82059            0   -8.3471928            0            0            0            0            0            0 
14991000    409.95984     62414.51    383.76818   -394.98567    584.55336    189.56769    562.73429   -394.98567            0   -8.3905096            0            0            0            0            0            0 
14992000    444.53196    65551.626    376.87888   -375.33729    574.05962    198.72233    623.69632   -375.33729            0   -7.9889634            0            0            0            0            0            0 
14993000    558.71605    60083.044    398.88547   -401.21959    607.57993    206.36034    695.93504   -401.21959            0   -8.7160954            0            0            0            0            0            0 
14994000    426.90229    61192.952    390.97591   -407.44875    595.53214    188.08339    569.06654   -407.44875            0   -8.5580043            0            0            0            0            0            0 
14995000    354.50009    63864.925     358.9601   -393.21692    546.76585    153.54894    483.73189   -393.21692            0   -8.1999555            0            0            0            0            0            0 
14996000    470.96109    62905.153    380.58029   -389.20734    579.69759    190.49025    622.55332   -389.20734            0   -8.3250659            0            0            0            0            0            0 
14997000    488.91014    66421.645    410.63243   -356.86421    625.47282    268.60861    742.21174   -356.86421            0   -7.8843206            0            0            0            0            0            0 
14998000    594.61144    61680.423    416.68392   -387.00974    634.69042    247.68068    782.56085   -387.00974            0   -8.4903688            0            0            0            0            0            0 
14999000    415.36542    62290.852    367.78599   -394.45314    560.20939    165.75625    543.09421   -394.45314            0   -8.4071662            0            0            0            0            0            0 
15000000    378.91325    65877.615    357.54795   -374.18449    544.61487    170.43038     534.4741   -374.18449            0   -7.9494309            0            0            0            0            0            0 
Loop time of 1377.73 on 8 procs for 5000000 steps with 512 atoms

Pair  time (%) = 737.942 (53.5623)
Bond  time (%) = 0.469048 (0.0340451)
Neigh time (%) = 31.0221 (2.25169)
Comm  time (%) = 445.871 (32.3628)
Outpt time (%) = 0.28201 (0.0204692)
Other time (%) = 162.14 (11.7687)

Nlocal:    64 ave 73 max 55 min
Histogram: 1 0 1 2 0 1 1 0 1 1
Nghost:    1184.62 ave 1226 max 1132 min
Histogram: 1 0 0 1 2 1 0 1 0 2
Neighs:    5023.75 ave 6304 max 4005 min
Histogram: 1 1 1 1 2 0 0 1 0 1

Total # of neighbors = 40190
Ave neighs/atom = 78.4961
Ave special neighs/atom = 0
Neighbor list builds = 90511
Dangerous builds = 0

Averages
Group Pressure(MPa) Volume(m3) Temperature(K) PE(J) KE(J) ET(J) ET^2(J) H(J) H^2(J^2) V^2(m6) V*H(m3*J) Hconf(J) Uext*Hconf(J^2) V*Hconf(m3*J) Uext(J)
Block1 50.219851632276757414 6.3521650896205465091e-26 379.80931542841295823 -2.6267245988369436777e-18 4.0194029737787839401e-18 1.3926783749418396847e-18 1.9677736389594443232e-36 4.5771558881818098411e-18 2.1135283527876256989e-35 4.0387793158784939488e-51 2.9073324805736716255e-43 5.5775291440303081213e-19 -1.4479096312250051119e-36 3.5414564366568888213e-44 -2.6267245988369436777e-18
Block2 49.876533755849784768 6.3609027922163348766e-26 379.67036350157303559 -2.6246591584138850804e-18 4.0179324890769445862e-18 1.3932733306630577725e-18 1.9735377703129162732e-36 4.5609456616976124842e-18 2.1018426117441611053e-35 4.0498172724119245513e-51 2.9013676527539870182e-43 5.4301317262066924615e-19 -1.4052207258637245587e-36 3.4564073477690624074e-44 -2.6246591584138850804e-18
Block3 50.14441393067514241 6.3505473507181373345e-26 380.48058781785698557 -2.6295826302813352275e-18 4.0265068391363414021e-18 1.3969242088550030931e-18 1.9827033632051662561e-36 4.5761857906152779152e-18 2.1155877567976945179e-35 4.0367816600259963726e-51 2.906396544052758588e-43 5.4967895147894026862e-19 -1.4256119985151469571e-36 3.4925847649447852075e-44 -2.6295826302813352275e-18
Block4 49.965677036418803425 6.3615329396750515622e-26 380.85285720485597949 -2.6242250524977406711e-18 4.0304464494101477053e-18 1.4062213969123949009e-18 2.0069764381348524011e-36 4.5800019002783558576e-18 2.117994123699790672e-35 4.0505521714016058982e-51 2.9137314885567257868e-43 5.4955545086822134496e-19 -1.4232191084305394944e-36 3.4980292956276129018e-44 -2.6242250524977406711e-18
Block5 49.827445304172833573 6.3570509957545402035e-26 380.25471191989731778 -2.6278663626247928341e-18 4.0241164652853389173e-18 1.3962501026605501277e-18 1.9807903861976892578e-36 4.5583186140879076189e-18 2.0993914355840378311e-35 4.0449867183542867218e-51 2.8976977571622313395e-43 5.3420214880257342012e-19 -1.384171996512557912e-36 3.3949097264900018725e-44 -2.6278663626247928341e-18
Ave_blocks 50.006784331878670002 6.3564398335969220972e-26 380.21356717451925533 -2.6266115605309398063e-18 4.0236810433375110021e-18 1.3970694828065692699e-18 1.9823563193620136355e-36 4.5705215709721932056e-18 2.1096688561226620185e-35 4.0441834276144614986e-51 2.9053051846198744733e-43 5.4684052763468701839e-19 -1.4172266921093948068e-36 3.476677514297670043e-44 -2.6266115605309398063e-18
Stdev_blocks 0.15176105568831729786 4.4547960421304469105e-29 0.43362987938123093157 1.9960889776901562156e-21 4.5889691376820312031e-21 4.8609180104478429201e-21 1.3410027662519596277e-38 9.017587126398532352e-21 7.5645839798141829592e-38 5.6024453184186606458e-54 5.4713929131511883241e-46 7.8598334457274426951e-21 2.1374851092572504707e-38 4.8994078714046393909e-46 1.9960889776901562156e-21






Properties
Group rho(kg/m3) Cp(J/K) Cp_conf(J/K) Cp_id(J/K) Cp2(J/K) kT(1/Pa) aP(1/K) aP2(1/K) Cv(J/K) uJT(K/Pa) sos(m/s) Cv2(J/K) uJT2(K/Pa) sos2(m/s) CvNVT(J/K)
Block1 214.71787914433770084 9.2851101808568502482e-20 1.1701158014915518946e-21 3.3581522348887870114e-20 3.4751638150379419e-20 1.1345596863891015271e-08 -0.00012054359449121247088 -0.00011715406381761389631 9.2820202531679936298e-20 -7.1544546262083885377e-07 640.8029413872910709 3.4722452138371789386e-20 -1.9092085096889026152e-06 640.96552090983277594 1.4169402462371962831e-20
Block2 214.42293029332594756 1.0863272094912190968e-19 3.5719892568043068748e-21 3.357517710032951763e-20 3.7147166357133824505e-20 1.1123189318597527057e-08 0.00015360307887883319295 0.00018589582699346429077 1.085814942974938514e-19 -5.5139411002122224773e-07 647.66755836124991674 3.707213627716330169e-20 -1.591495757926926886e-06 648.16975341640988972 1.6243193781185407079e-20
Block3 214.77257639277178214 1.0727016265128522112e-19 3.3018717272191460811e-21 3.3612206063149049112e-20 3.6914077790368195193e-20 1.1500261487169126109e-08 0.00021121261736141967269 0.0001435890981397264178 1.0717643328860744037e-19 -5.4443869664002064068e-07 636.57055831603156548 3.6870758744466217938e-20 -1.6263710533756960961e-06 636.66606638389043837 1.5663217882172139824e-20
Block4 214.40169043401905924 1.0162899053622222287e-19 2.8902913442070503839e-21 3.3629243749114616554e-20 3.6519535093321669947e-20 1.0887850592366185022e-08 0.00011632396133409421564 0.00015810353944405860995 1.0159888022721909814e-19 -5.9822519971101806968e-07 654.60477100474031431 3.6463911373253315489e-20 -1.6370631238302398001e-06 655.00680957146062156 1.4739631936799778982e-20
Block5 214.55285114574371619 1.0802107920025289892e-19 2.5093366453980378562e-21 3.3601875786382204759e-20 3.611121243178024412e-20 1.1317002355507270527e-08 -3.8320201472004511022e-05 -8.1994640923663047669e-05 1.0801794263403323692e-19 -5.9707627554602124477e-07 641.76120057622779314 3.6096851922896324467e-20 -1.8152967138516630911e-06 641.87952547865722863 1.5666763593061628663e-20
Ave_blocks 214.57358548203964688 1.036808110290901462e-19 2.6887209550240184676e-21 3.3600005009572654041e-20 3.6288725964596671757e-20 1.1234780123506225128e-08 6.4455172322226033429e-05 5.7687951967194477619e-05 1.0363899059580672707e-19 -6.0131594890782419015e-07 644.28140592910801843 3.6245222091230190998e-20 -1.7158870317346856977e-06 644.53753515205028179 1.5296441931118181068e-20
Stdev_blocks 0.15039471377371127492 5.9621364267764977988e-21 8.4084335366869263469e-22 1.9825757123611770401e-23 8.4562493700056555341e-22 2.108714334158500195e-10 0.00012406674765822790513 0.0001295997789976806151 5.9552546560435052327e-21 6.1286679277860607008e-08 6.2601312491023035633 8.3231607141647050871e-22 1.2406045830595159032e-07 6.3966090724295296965 7.4138480306335185947e-22






