LAMMPS (28 Oct 2012)
Scanning data file ...
Reading data file ...
  orthogonal box = (0 0 0) to (100 100 100)
  2 by 2 by 2 MPI processor grid
  512 atoms
Finding 1-2 1-3 1-4 neighbors ...
  0 = max # of 1-2 neighbors
  0 = max # of 1-3 neighbors
  0 = max # of 1-4 neighbors
  1 = max # of special neighbors
WARNING: Resetting reneighboring criteria during minimization (min.cpp:173)
Setting up minimization ...
Memory usage per processor = 4.05499 Mbytes
Step Temp E_pair E_mol TotEng Press 
       0       460.15    1409.7233            0     2110.621    444.55609 
     701       460.15   -217.27527            0    483.62242    31.811195 
Loop time of 0.0545097 on 8 procs for 701 steps with 512 atoms

Minimization stats:
  Stopping criterion = energy tolerance
  Energy initial, next-to-last, final = 
         1409.72334813     -217.256630745     -217.275265106
  Force two-norm initial, final = 5034.49 0.337455
  Force max component initial, final = 2457.89 0.147661
  Final line search alpha, max atom move = 0.254892 0.0376377
  Iterations, force evaluations = 701 710

Pair  time (%) = 0.00898495 (16.4832)
Bond  time (%) = 6.38962e-05 (0.11722)
Neigh time (%) = 0.0031383 (5.75733)
Comm  time (%) = 0.0220182 (40.3932)
Outpt time (%) = 0 (0)
Other time (%) = 0.0203043 (37.249)

Nlocal:    64 ave 74 max 52 min
Histogram: 1 0 0 1 1 2 0 2 0 1
Nghost:    235.125 ave 266 max 224 min
Histogram: 4 0 2 0 0 1 0 0 0 1
Neighs:    316.25 ave 371 max 226 min
Histogram: 1 0 0 1 1 1 0 1 0 3

Total # of neighbors = 2530
Ave neighs/atom = 4.94141
Ave special neighs/atom = 0
Neighbor list builds = 60
Dangerous builds = 0
Setting up run ...
Memory usage per processor = 3.36354 Mbytes
Step Temp E_pair E_mol TotEng Press Volume 
     701       460.15   -217.27527            0    483.62242    31.811195      1000000 
 5000701    444.29886    -356.1306            0    320.62274    732.66586    62108.097 
Loop time of 1361.11 on 8 procs for 5000000 steps with 512 atoms

Pair  time (%) = 744.671 (54.7107)
Bond  time (%) = 0.454954 (0.0334253)
Neigh time (%) = 34.2476 (2.51616)
Comm  time (%) = 425.816 (31.2845)
Outpt time (%) = 5.28097e-05 (3.87991e-06)
Other time (%) = 155.917 (11.4551)

Nlocal:    64 ave 69 max 58 min
Histogram: 1 1 1 0 1 0 1 0 0 3
Nghost:    1206.62 ave 1236 max 1173 min
Histogram: 1 1 0 1 0 1 2 0 1 1
Neighs:    5313.62 ave 5818 max 4940 min
Histogram: 3 0 0 1 1 0 0 2 0 1

Total # of neighbors = 42509
Ave neighs/atom = 83.0254
Ave special neighs/atom = 0
Neighbor list builds = 99273
Dangerous builds = 12
Setting up run ...
Memory usage per processor = 3.96878 Mbytes
Step Press Volume Temp PotEng KinEng TotEng Enthalpy E_vdwl E_coul E_tail E_long E_bond E_angle E_dihed E_impro E_mol 
10000000    732.66586    62108.097    444.29886    -356.1306    676.75333    320.62274    984.25893    -356.1306            0   -8.4319045            0            0            0            0            0            0 
10001000    776.77514     61387.71    454.52354   -366.87645     692.3275    325.45105    1020.8798   -366.87645            0   -8.5308533            0            0            0            0            0            0 
10002000    627.58515     66614.86    463.85306   -338.25425    706.53816    368.28392    977.98879   -338.25425            0   -7.8614523            0            0            0            0            0            0 
10003000    744.75747    61289.554    452.22807   -369.96153    688.83105    318.86953    984.56747   -369.96153            0   -8.5445155            0            0            0            0            0            0 
10004000    527.43003    63663.477    448.49523   -376.59104    683.14522    306.55418     796.2553   -376.59104            0   -8.2259024            0            0            0            0            0            0 
10005000    740.07324    60747.384    441.14437   -368.39622    671.94843    303.55221    959.21143   -368.39622            0   -8.6207752            0            0            0            0            0            0 
10006000    763.42979    64393.436    482.05513   -348.35194    734.26344    385.91151    1102.8577   -348.35194            0   -8.1326542            0            0            0            0            0            0 
10007000    698.73975     64239.27    472.05849   -358.75422    719.03664    360.28241    1014.9064   -358.75422            0   -8.1521714            0            0            0            0            0            0 
10008000    655.80793    62774.932    443.69176   -365.02948    675.82859    310.79911    911.19651   -365.02948            0   -8.3423355            0            0            0            0            0            0 
10009000    769.83119    61994.836    447.45736   -349.77636    681.56433    331.78797    1027.8163   -349.77636            0   -8.4473091            0            0            0            0            0            0 
10010000    655.83826    63576.178    435.26296   -358.81921     662.9899    304.17069    912.25956   -358.81921            0   -8.2371976            0            0            0            0            0            0 
10011000    767.30432    60271.501    453.40002   -365.07759    690.61616    325.53857    999.99755   -365.07759            0   -8.6888419            0            0            0            0            0            0 
10012000    643.26562    62307.114    479.76661   -380.13931     730.7776    350.63829    935.16433   -380.13931            0    -8.404972            0            0            0            0            0            0 
10013000     770.9277    61699.345     474.2304   -363.82047    722.34487     358.5244    1052.2218   -363.82047            0   -8.4877651            0            0            0            0            0            0 
10014000    664.72068    62508.765    446.21361   -371.23086    679.66987    308.43901    914.41581   -371.23086            0   -8.3778577            0            0            0            0            0            0 
10015000    729.99924    63895.114    451.57476   -347.34089    687.83593    340.49504     1020.741   -347.34089            0   -8.1960813            0            0            0            0            0            0 
10016000     717.6489    62701.589    452.49726   -360.14709    689.24108    329.09399    985.33967   -360.14709            0   -8.3520936            0            0            0            0            0            0 
10017000    642.84075    66814.626     458.8457   -335.05016    698.91099    363.86084    990.25951   -335.05016            0   -7.8379477            0            0            0            0            0            0 
10018000    794.87752    60094.095    477.81524   -375.54406    727.80528    352.26122    1048.9004   -375.54406            0   -8.7144926            0            0            0            0            0            0 
10019000      629.791    63550.973    447.95099   -363.68438    682.31623    318.63185    902.33837   -363.68438            0   -8.2404647            0            0            0            0            0            0 
10020000    571.68281    64683.563    444.53512   -364.91293     677.1132    312.20027    851.49349   -364.91293            0   -8.0961765            0            0            0            0            0            0 
10021000     709.9123    62068.651    435.64002    -361.6208    663.56424    301.94344    944.56146    -361.6208            0   -8.4372632            0            0            0            0            0            0 
10022000    606.31799    65178.115    473.65979   -354.48948    721.47571    366.98623    943.32541   -354.48948            0   -8.0347451            0            0            0            0            0            0 
10023000    786.35964     61026.15    471.49462   -378.94584    718.17775    339.23191     1039.095   -378.94584            0   -8.5813958            0            0            0            0            0            0 
10024000    578.97786    65289.006     458.3748   -362.75392    698.19372     335.4398    886.72699   -362.75392            0   -8.0210985            0            0            0            0            0            0 
10025000    694.05964    65241.614    466.65598   -344.87782    710.80756    365.92974     1026.315   -344.87782            0   -8.0269251            0            0            0            0            0            0 
10026000    661.94357    63985.939     446.8559   -359.03262     680.6482    321.61558    939.32099   -359.03262            0   -8.1844473            0            0            0            0            0            0 
10027000    750.42803    61158.146    451.08284    -367.8205    687.08664    319.26614    988.59454    -367.8205            0   -8.5628748            0            0            0            0            0            0 
10028000    764.74062    64046.591    468.82288   -340.41164    714.10817    373.69653    1088.0054   -340.41164            0   -8.1766966            0            0            0            0            0            0 
10029000    855.41124     61734.74    469.98794   -352.59189    715.88279    363.29089      1133.45   -352.59189            0   -8.4828987            0            0            0            0            0            0 
10030000    733.39116    65725.072    474.22283   -343.47136    722.33334    378.86198    1081.8414   -343.47136            0   -7.9678809            0            0            0            0            0            0 
10031000    664.25391    61903.329    445.91948   -371.34894    679.22184    307.87291    907.55906   -371.34894            0   -8.4597961            0            0            0            0            0            0 
10032000    641.02498    65186.516    442.27751   -350.21552    673.67442     323.4589    932.86755   -350.21552            0   -8.0337096            0            0            0            0            0            0 
10033000    606.04099    63037.204    478.50331   -381.72952    728.85334    347.12381    904.27728   -381.72952            0   -8.3076264            0            0            0            0            0            0 
10034000    690.15829    62663.878     474.2588   -371.75171    722.38813    350.63641    981.36406   -371.75171            0     -8.35712            0            0            0            0            0            0 
10035000    854.91534      60150.7    431.83822   -357.50333    657.77336    300.27003    1050.2328   -357.50333            0   -8.7062919            0            0            0            0            0            0 
10036000    697.69297    63443.194    448.21703   -362.52393    682.72147    320.19753    965.74068   -362.52393            0   -8.2544637            0            0            0            0            0            0 
10037000    779.45305    63683.378    496.19347   -348.26701    755.79889    407.53188    1131.4542   -348.26701            0   -8.2233318            0            0            0            0            0            0 
10038000    792.40495    61934.931    480.72633   -360.34823    732.23944    371.89121    1087.6369   -360.34823            0   -8.4554795            0            0            0            0            0            0 
10039000    738.75969    60569.604      451.519   -379.70818      687.751    308.04281     960.6229   -379.70818            0   -8.6460784            0            0            0            0            0            0 
10040000    634.53009    62627.205    448.15738   -373.35053     682.6306    309.28007    888.83038   -373.35053            0   -8.3620137            0            0            0            0            0            0 
10041000    769.10027    62094.945    460.12143   -357.56984    700.85418    343.28434    1039.7747   -357.56984            0   -8.4336904            0            0            0            0            0            0 
10042000    624.97217    64624.672    449.84974   -364.06709     685.2084    321.14131    910.16793   -364.06709            0   -8.1035544            0            0            0            0            0            0 
10043000    705.17201    60680.437    491.53142   -388.01651    748.69769    360.68118    984.73156   -388.01651            0   -8.6302863            0            0            0            0            0            0 
10044000    666.20842    62579.928    465.74439   -366.14816    709.41903    343.27087    951.29535   -366.14816            0   -8.3683309            0            0            0            0            0            0 
10045000    712.76968    63061.439    468.44902   -367.21273     713.5387    346.32598    1001.8506   -367.21273            0   -8.3044337            0            0            0            0            0            0 
10046000    796.71359    62367.943    465.55205   -352.89536    709.12605     356.2307    1080.8995   -352.89536            0   -8.3967743            0            0            0            0            0            0 
10047000    784.64758    62467.837    479.73397   -350.99193    730.72787    379.73594    1094.5729   -350.99193            0   -8.3833468            0            0            0            0            0            0 
10048000    621.47972    66629.785    468.97079   -343.38945    714.33346    370.94401    974.85267   -343.38945            0   -7.8596914            0            0            0            0            0            0 
10049000    697.92695    62484.717    446.67192   -363.25783    680.36796    317.11014    953.11387   -363.25783            0   -8.3810822            0            0            0            0            0            0 
10050000    680.08771    62980.126    438.51842   -359.96618     667.9486    307.98242    932.64334   -359.96618            0   -8.3151556            0            0            0            0            0            0 
10051000    798.69009    61642.246    479.24904   -370.47941    729.98924    359.50982    1077.5234   -370.47941            0   -8.4956272            0            0            0            0            0            0 
10052000    691.54048    64483.361    466.13644   -348.49437    710.01621    361.52184    1011.8629   -348.49437            0   -8.1213128            0            0            0            0            0            0 
10053000    835.35168    60097.409     446.9001   -361.41371    680.71552    319.30181    1051.4534   -361.41371            0   -8.7140121            0            0            0            0            0            0 
10054000    500.42767    64935.831    442.94354   -366.04844    674.68892    308.64048    782.55674   -366.04844            0   -8.0647238            0            0            0            0            0            0 
10055000    834.35307    60931.439    439.24008   -351.72288    669.04783    317.32495    1058.7499   -351.72288            0   -8.5947346            0            0            0            0            0            0 
10056000    645.76378    65834.014     484.9816   -356.49485    738.72104    382.22619    1002.2379   -356.49485            0   -7.9546957            0            0            0            0            0            0 
10057000    675.60227    61761.019    453.20694   -384.37978    690.32206    305.94228    914.47151   -384.37978            0   -8.4792892            0            0            0            0            0            0 
10058000    596.59273    65133.534    464.33194   -353.06197    707.26759    354.20562    920.91251   -353.06197            0   -8.0402446            0            0            0            0            0            0 
10059000    755.97841    61937.663    446.10366    -357.1805    679.50239    322.32189    1005.1951    -357.1805            0   -8.4551066            0            0            0            0            0            0 
10060000    859.96784    59775.768    458.08467   -369.85747    697.75179    327.89431     1077.587   -369.85747            0   -8.7609003            0            0            0            0            0            0 
10061000    617.71753    67294.515    466.56758   -341.36734    710.67291    369.30558    975.54683   -341.36734            0   -7.7820539            0            0            0            0            0            0 
10062000    613.37272    62672.175     440.9693   -372.18273    671.68176    299.49903    860.12746   -372.18273            0   -8.3560135            0            0            0            0            0            0 
10063000    558.76221    62796.207     431.3034   -381.15308    656.95872    275.80564    787.53028   -381.15308            0   -8.3395092            0            0            0            0            0            0 
10064000    667.33809    61626.874    460.82862   -379.91284    701.93136    322.01852    921.79848   -379.91284            0   -8.4977463            0            0            0            0            0            0 
10065000     752.2761    63094.492    455.91636     -353.181    694.44904    341.26804    1033.4888     -353.181            0   -8.3000834            0            0            0            0            0            0 
10066000    707.01085    63877.876     480.9084   -360.40513    732.51676    372.11163    1030.7582   -360.40513            0   -8.1982931            0            0            0            0            0            0 
10067000    741.94107    62906.982    450.95588   -355.58866    686.89326     331.3046    1011.9864   -355.58866            0   -8.3248239            0            0            0            0            0            0 
10068000    734.26444    62579.799    446.15668   -360.29278    679.58314    319.29036    989.42574   -360.29278            0   -8.3683482            0            0            0            0            0            0 
10069000    719.29809    62742.986     479.3039   -364.62925     730.0728    365.44355    1023.6316   -364.62925            0    -8.346583            0            0            0            0            0            0 
10070000    710.24953    63870.944    458.50899   -354.62952    698.39811    343.76859    1005.3605   -354.62952            0   -8.1991827            0            0            0            0            0            0 
10071000    655.75047    63989.801    444.33851   -355.39546    676.81372    321.41826     933.3814   -355.39546            0   -8.1839534            0            0            0            0            0            0 
10072000    646.56808    64445.952    480.84691   -356.21375     732.4231    376.20936    983.90454   -356.21375            0    -8.126027            0            0            0            0            0            0 
10073000    771.09003    60622.165    452.72519   -370.45406    689.58827    319.13421    1000.8642   -370.45406            0    -8.638582            0            0            0            0            0            0 
10074000    655.62754    66428.985    483.18101   -343.05965    735.97839    392.91874    1028.0898   -343.05965            0   -7.8834494            0            0            0            0            0            0 
10075000    634.31381    63121.069    490.09088    -374.2793    746.50346    372.22416    956.14557    -374.2793            0   -8.2965887            0            0            0            0            0            0 
10076000    727.89826    62767.425    440.23282   -351.28813    670.55996    319.27182    985.58881   -351.28813            0   -8.3433333            0            0            0            0            0            0 
10077000    590.38073    64753.997    467.88449   -361.48856    712.67883    351.19027    908.72849   -361.48856            0   -8.0873702            0            0            0            0            0            0 
10078000    659.11797    62051.374    472.46068   -377.29077    719.64924    342.35846    938.83099   -377.29077            0   -8.4396124            0            0            0            0            0            0 
10079000    604.76625    64575.603    441.95462   -351.18433     673.1826    321.99827    891.54834   -351.18433            0    -8.109712            0            0            0            0            0            0 
10080000    702.23343    61537.016    467.87167   -374.13543    712.65928    338.52385    968.74623   -374.13543            0    -8.510155            0            0            0            0            0            0 
10081000    944.68639    62128.892    492.33986   -346.03039    749.92909    403.89871     1259.866   -346.03039            0   -8.4290823            0            0            0            0            0            0 
10082000    659.38583    65666.976    459.56986   -350.63326    700.01402    349.38076      980.865   -350.63326            0   -7.9749301            0            0            0            0            0            0 
10083000    732.38253    61827.535    486.90807    -368.4536    741.65542    373.20182    1033.5847    -368.4536            0    -8.470167            0            0            0            0            0            0 
10084000    715.07797    64704.529    461.68437   -347.48924    703.23483    355.74559    1030.5283   -347.48924            0   -8.0935532            0            0            0            0            0            0 
10085000     589.4844    63347.003    445.46486   -365.69366    678.52937    312.83571    857.43151   -365.69366            0   -8.2669979            0            0            0            0            0            0 
10086000    748.77682    59762.156       469.38    -394.3054    714.95677    320.65137    973.26259    -394.3054            0   -8.7628958            0            0            0            0            0            0 
10087000    720.95631    64935.965    462.24133     -343.198     704.0832     360.8852    1043.6484     -343.198            0   -8.0647072            0            0            0            0            0            0 
10088000     901.4411    59321.319    494.49597   -373.73105    753.21326    379.48221    1159.3555   -373.73105            0   -8.8280158            0            0            0            0            0            0 
10089000    480.21813    67430.136    452.83849   -353.31868    689.76084    336.44216    808.68836   -353.31868            0   -7.7664021            0            0            0            0            0            0 
10090000    678.47712    61712.883    497.04385   -374.21161    757.09418    382.88257    993.52493   -374.21161            0   -8.4859031            0            0            0            0            0            0 
10091000    718.15918    63481.799    484.39659   -365.63949    737.82995    372.19047    1037.0744   -365.63949            0   -8.2494441            0            0            0            0            0            0 
10092000    745.91795    61284.202    460.15495   -370.97548    700.90523    329.92975    996.60676   -370.97548            0   -8.5452618            0            0            0            0            0            0 
10093000    730.87585    63357.202    469.99542    -354.0768    715.89417    361.81737    1037.1465    -354.0768            0   -8.2656672            0            0            0            0            0            0 
10094000    733.42601    62742.009    468.52661   -363.29048    713.65689    350.36641    1021.4716   -363.29048            0    -8.346713            0            0            0            0            0            0 
10095000    602.20075    64820.857    438.20582   -357.69522    667.47245    309.77723    879.06512   -357.69522            0   -8.0790285            0            0            0            0            0            0 
10096000    739.78856    59049.653    459.34015    -391.8888    699.66413    307.77533    944.86543    -391.8888            0   -8.8686303            0            0            0            0            0            0 
10097000    729.80157     64692.53    492.19881   -350.04649    749.71424    399.66774    1088.2167   -350.04649            0   -8.0950544            0            0            0            0            0            0 
10098000    676.02585    62626.101    430.88024   -364.34225    656.31417    291.97192    909.41164   -364.34225            0   -8.3621611            0            0            0            0            0            0 
10099000    767.00538    61622.674     468.6212   -358.66103    713.80097    355.13994    1044.4504   -358.66103            0   -8.4983255            0            0            0            0            0            0 
10100000    745.22498    62725.341    458.86799   -357.97543    698.94494    340.96951      1022.69   -357.97543            0    -8.348931            0            0            0            0            0            0 
10101000    642.97279    63285.118    453.03635   -364.48521    690.06223    325.57701     919.0078   -364.48521            0   -8.2750821            0            0            0            0            0            0 
10102000    695.17457    64567.177    446.51956   -348.80333    680.13589    331.33256    985.94095   -348.80333            0   -8.1107703            0            0            0            0            0            0 
10103000    811.63458    59428.357    462.19893   -375.64731    704.01861     328.3713    1031.8163   -375.64731            0   -8.8121155            0            0            0            0            0            0 
10104000      602.647    64422.654    456.96293   -368.84471    696.04317    327.19845    893.40841   -368.84471            0   -8.1289657            0            0            0            0            0            0 
10105000    780.35041    61065.254    442.77906   -374.42512    674.43837    300.01326    994.97311   -374.42512            0   -8.5759006            0            0            0            0            0            0 
10106000     753.0424    60583.442    469.56988   -375.10009    715.24599     340.1459    1005.4945   -375.10009            0   -8.6441036            0            0            0            0            0            0 
10107000    730.56271    62996.466    451.00449   -353.80553    686.96731    333.16178    1004.3581   -353.80553            0   -8.3129988            0            0            0            0            0            0 
10108000    620.80095    63693.435    453.50264   -362.85159    690.77248    327.92089    904.58501   -362.85159            0   -8.2220333            0            0            0            0            0            0 
10109000    640.42795    63824.908    458.76608    -365.7667    698.78972    333.02302    929.14669    -365.7667            0   -8.2050967            0            0            0            0            0            0 
10110000    731.63191    59950.402    444.00666   -385.40587    676.30826    290.90238    930.57922   -385.40587            0   -8.7353801            0            0            0            0            0            0 
10111000    565.52096    62331.334    447.86681   -385.63281    682.18802     296.5552    810.63556   -385.63281            0    -8.401706            0            0            0            0            0            0 
10112000    753.19423    62122.167    445.38581   -369.70247    678.40896    308.70649    991.09149   -369.70247            0   -8.4299947            0            0            0            0            0            0 
10113000    730.87233    64163.917    447.43564    -349.0086    681.53126    332.52266    1016.4473    -349.0086            0   -8.1617452            0            0            0            0            0            0 
10114000    749.64551    60824.023    444.35795    -362.3108    676.84333    314.53253    979.51006    -362.3108            0    -8.609913            0            0            0            0            0            0 
10115000    655.59502    63557.223     470.2456   -359.71784    716.27525    356.55741    964.23951   -359.71784            0   -8.2396543            0            0            0            0            0            0 
10116000    603.61737    65608.442    464.12304   -364.59925     706.9494    342.35015    919.91047   -364.59925            0   -7.9820452            0            0            0            0            0            0 
10117000    882.09727    59424.202    473.34182   -371.20494    720.99139    349.78645    1114.2482   -371.20494            0   -8.8127316            0            0            0            0            0            0 
10118000    707.65933    63225.283     457.7549   -354.12412    697.24948    343.12536    995.64097   -354.12412            0   -8.2829134            0            0            0            0            0            0 
10119000     687.9724    63509.421    428.45433     -352.557    652.61904    300.06204    937.27567     -352.557            0   -8.2458561            0            0            0            0            0            0 
10120000    682.06602    63738.726    477.44994   -362.03036    727.24886    365.21849    999.24247   -362.03036            0    -8.216191            0            0            0            0            0            0 
10121000    613.85034     61635.78    457.32838   -384.52743    696.59981    312.07238    863.85916   -384.52743            0   -8.4965185            0            0            0            0            0            0 
10122000    758.79721    61785.124     451.6469    -362.9931    687.94582    324.95272    1008.6841    -362.9931            0   -8.4759811            0            0            0            0            0            0 
10123000    699.91116    63826.975     468.6004   -355.25273    713.76928    358.51655    1010.0295   -355.25273            0   -8.2048311            0            0            0            0            0            0 
10124000    649.74745    64053.167    479.42904   -360.72853    730.26341    369.53488    976.49629   -360.72853            0   -8.1758572            0            0            0            0            0            0 
10125000    754.14649    63627.401    471.76722   -339.58645    718.59298    379.00653    1078.8095   -339.58645            0   -8.2305663            0            0            0            0            0            0 
10126000    632.81068    61028.553    467.40214   -401.24244     711.9441    310.70166    873.92775   -401.24244            0   -8.5810579            0            0            0            0            0            0 
10127000    682.70738    63979.294      481.601   -360.86365    733.57172    372.70807    1009.7235   -360.86365            0   -8.1852974            0            0            0            0            0            0 
10128000    679.89122    63978.424    476.64338   -355.02225     726.0203    370.99805    1005.3771   -355.02225            0   -8.1854087            0            0            0            0            0            0 
10129000    731.06323    60733.317    460.72058   -371.36199    701.76679     330.4048    977.93172   -371.36199            0   -8.6227721            0            0            0            0            0            0 
10130000    591.40706    62925.651    418.51218   -370.03737    637.47521    267.43784    810.17568   -370.03737            0   -8.3223541            0            0            0            0            0            0 
10131000    657.83256    64521.447    463.76729   -354.35578    706.40753    352.05175    971.05846   -354.35578            0   -8.1165189            0            0            0            0            0            0 
10132000    694.40349    61219.402    435.85114   -369.01471    663.88581    294.87111    914.84995   -369.01471            0   -8.5543067            0            0            0            0            0            0 
10133000    647.53295    59975.699    460.62892    -393.5789    701.62717    308.04827    874.43501    -393.5789            0   -8.7316956            0            0            0            0            0            0 
10134000    640.71518    63179.871    451.99262   -365.72109    688.47242    322.75133    913.11502   -365.72109            0   -8.2888669            0            0            0            0            0            0 
10135000    665.64306    64111.745    435.07392   -357.64953    662.70196    305.05243    927.43138   -357.64953            0    -8.168387            0            0            0            0            0            0 
10136000    612.20389    62323.981    465.53635   -381.42552    709.10215    327.67663    884.12793   -381.42552            0   -8.4026973            0            0            0            0            0            0 
10137000    610.69075    64769.181    441.92325   -352.66784    673.13481    320.46697    897.32061   -352.66784            0   -8.0854742            0            0            0            0            0            0 
10138000    722.18348     61729.24    460.77566   -369.67616    701.85069    332.17454    982.32573   -369.67616            0   -8.4836546            0            0            0            0            0            0 
10139000    596.58646    65437.397      474.838   -360.60915    723.27037    362.66122    932.00594   -360.60915            0   -8.0029092            0            0            0            0            0            0 
10140000    706.44745    61853.627    479.02133   -373.55335    729.64239    356.08904     993.3553   -373.55335            0    -8.466594            0            0            0            0            0            0 
10141000    684.23485    61963.711    436.29649   -369.70178    664.56417    294.86238    913.18979   -369.70178            0   -8.4515523            0            0            0            0            0            0 
10142000    610.68206    63594.656    447.09362   -366.70513    681.01029    314.30516    880.69007   -366.70513            0   -8.2348043            0            0            0            0            0            0 
10143000    636.48267    67299.499    463.93071   -340.65867    706.65645    365.99778    990.70181   -340.65867            0   -7.7814776            0            0            0            0            0            0 
10144000    739.51094    59553.975    453.35527   -381.92264      690.548    308.62536    950.91549   -381.92264            0    -8.793528            0            0            0            0            0            0 
10145000    709.91392    63510.751    451.54261   -357.65782    687.78697    330.12915    987.67922   -357.65782            0   -8.2456834            0            0            0            0            0            0 
10146000    614.72059    63090.757    459.88056   -374.78912    700.48728    325.69816    891.31117   -374.78912            0   -8.3005747            0            0            0            0            0            0 
10147000    771.42119    59985.614    470.27998   -374.86047    716.32761    341.46714    1016.3285   -374.86047            0   -8.7302523            0            0            0            0            0            0 
10148000    657.03771    64788.245    483.45747   -359.60769    736.39948    376.79179    997.60708   -359.60769            0    -8.083095            0            0            0            0            0            0 
10149000    737.82487    61482.654    466.46958   -369.75393    710.52363     340.7697    1002.3488   -369.75393            0   -8.5176796            0            0            0            0            0            0 
10150000    643.83403    62513.366     453.6793   -369.77539    691.04156    321.26618    908.24535   -369.77539            0   -8.3772413            0            0            0            0            0            0 
10151000    775.69873    62126.759    450.77983   -361.62848     686.6251    324.99662    1027.8224   -361.62848            0   -8.4293718            0            0            0            0            0            0 
10152000    640.60691    63508.868    475.06562   -366.94473    723.61707    356.67234    950.00995   -366.94473            0   -8.2459279            0            0            0            0            0            0 
10153000    795.21271    58163.381    440.79608   -393.07817    671.41792    278.33975    952.88152   -393.07817            0   -9.0037673            0            0            0            0            0            0 
10154000    750.10493    63576.486    480.07469   -351.59367    731.24685    379.65318    1075.1489   -351.59367            0   -8.2371577            0            0            0            0            0            0 
10155000    598.66317    63484.034    473.16169   -371.60709    720.71701    349.10992    903.38193   -371.60709            0   -8.2491536            0            0            0            0            0            0 
10156000    740.88936    60550.783    443.66385   -369.65691    675.78609    306.12918    960.38713   -369.65691            0   -8.6487658            0            0            0            0            0            0 
10157000    756.75505     62735.57    476.23323   -357.91223    725.39556    367.48333    1059.8642   -357.91223            0   -8.3475697            0            0            0            0            0            0 
10158000    722.83468    63064.242    470.68175   -360.01147    716.93958    356.92811    1021.7389   -360.01147            0   -8.3040647            0            0            0            0            0            0 
10159000    650.96343    65098.187    483.69659   -358.12008    736.76372    378.64364    996.66199   -358.12008            0   -8.0446103            0            0            0            0            0            0 
10160000    675.88428     64667.61    492.32826   -359.24628    749.91143    390.66515    1028.0989   -359.24628            0   -8.0981738            0            0            0            0            0            0 
10161000    875.72681    62232.619     439.3531   -337.36345    669.21998    331.85653    1126.6652   -337.36345            0   -8.4150331            0            0            0            0            0            0 
10162000    735.69598    64088.256    441.81681    -349.3168    672.97269    323.65589    1011.2826    -349.3168            0   -8.1713808            0            0            0            0            0            0 
10163000    687.08068    64109.677    465.54274    -351.0524    709.11187    358.05947     1000.462    -351.0524            0   -8.1686505            0            0            0            0            0            0 
10164000    822.53219      62077.6     469.3732   -345.67845    714.94641    369.26795    1113.9377   -345.67845            0   -8.4360469            0            0            0            0            0            0 
10165000    848.49916      59848.8      469.417   -371.68493    715.01313    343.32819    1083.9266   -371.68493            0   -8.7502097            0            0            0            0            0            0 
10166000    705.18361    62223.408    449.88385   -359.21052    685.26035    326.04982    965.97897   -359.21052            0   -8.4162788            0            0            0            0            0            0 
10167000    566.14694    66040.702    467.29506   -361.85203    711.78101    349.92898    895.20543   -361.85203            0   -7.9297998            0            0            0            0            0            0 
10168000    740.21303    60044.439    456.89299    -387.9911    695.93663    307.94553    956.14013    -387.9911            0   -8.7216994            0            0            0            0            0            0 
10169000    691.26809    62168.338    441.97003    -363.0733    673.20607    310.13277     936.8789    -363.0733            0    -8.423734            0            0            0            0            0            0 
10170000    770.76446    63383.693    458.57229   -346.34291    698.49453    352.15163    1064.6356   -346.34291            0   -8.2622126            0            0            0            0            0            0 
10171000    701.05658    64073.127    486.49841   -350.51277    741.03143    390.51866    1045.6146   -350.51277            0   -8.1733103            0            0            0            0            0            0 
10172000    787.16715    60188.458    451.75663   -378.96789    688.11295    309.14506    1000.1101   -378.96789            0   -8.7008301            0            0            0            0            0            0 
10173000    664.28723    64997.808    429.50001   -350.99575    654.21181    303.21607    932.91144   -350.99575            0    -8.057034            0            0            0            0            0            0 
10174000    696.35487    62905.684    443.61843    -366.8212     675.7169     308.8957    947.74201    -366.8212            0   -8.3249957            0            0            0            0            0            0 
10175000    772.45605    64187.754     449.8215   -335.01386    685.16537    350.15152    1073.2573   -335.01386            0   -8.1587143            0            0            0            0            0            0 
10176000     729.4596    63066.137    468.14752   -360.93239    713.07946    352.14707    1023.0711   -360.93239            0   -8.3038152            0            0            0            0            0            0 
10177000    684.02826    64058.915    468.26083   -357.70944    713.25205    355.54261    994.58478   -357.70944            0   -8.1751236            0            0            0            0            0            0 
10178000    712.31061    63130.573    460.16398   -351.24652    700.91898    349.67246     1005.493   -351.24652            0   -8.2953397            0            0            0            0            0            0 
10179000    731.53695    62355.506    474.63865   -359.60011    722.96672    363.36661    1028.6198   -359.60011            0   -8.3984492            0            0            0            0            0            0 
10180000    727.15772    62145.511    464.20634   -364.68462    707.07628    342.39166    1001.4354   -364.68462            0   -8.4268283            0            0            0            0            0            0 
10181000    644.96716    63361.746    449.36754   -371.56936    684.47391    312.90455    908.89682   -371.56936            0   -8.2650744            0            0            0            0            0            0 
10182000      740.726    60405.195    456.60832   -382.83064    695.50302    312.67238    965.21333   -382.83064            0    -8.669611            0            0            0            0            0            0 
10183000    600.65696     63713.39    480.47147   -373.82488    731.85123    358.02635    916.15346   -373.82488            0   -8.2194582            0            0            0            0            0            0 
10184000    653.90326     63530.04    460.56439   -364.20983    701.52889    337.31906    943.17381   -364.20983            0   -8.2431799            0            0            0            0            0            0 
10185000    628.21865    64762.243    459.29574   -357.83139    699.59649     341.7651     935.1119   -357.83139            0   -8.0863404            0            0            0            0            0            0 
10186000    643.73975    63383.491    453.14309   -364.53357    690.22481    325.69124    920.75345   -364.53357            0   -8.2622389            0            0            0            0            0            0 
10187000    765.06486    60058.077    482.04075   -376.53535    734.24154     357.7062    1027.8154   -376.53535            0   -8.7197189            0            0            0            0            0            0 
10188000     654.2444    64589.231    470.93103   -360.97052    717.31929    356.34877    972.62586   -360.97052            0    -8.108001            0            0            0            0            0            0 
10189000     766.3506    61822.567    444.45822    -354.9368    676.99606    322.05927    1013.0153    -354.9368            0   -8.4708477            0            0            0            0            0            0 
10190000    634.47612    62404.373    450.24337   -368.77126    685.80798    317.03672    894.47583   -368.77126            0   -8.3918725            0            0            0            0            0            0 
10191000    693.61784    64687.233    434.17431   -349.13191    661.33168    312.19978    966.55673   -349.13191            0   -8.0957171            0            0            0            0            0            0 
10192000    554.62312    64862.008    454.78353   -368.04891    692.72351    324.67459    849.31804   -368.04891            0   -8.0739028            0            0            0            0            0            0 
10193000    828.54251    61453.232    448.99944   -354.56466    683.91323    329.34856    1071.9152   -354.56466            0   -8.5217576            0            0            0            0            0            0 
10194000    666.96527    64113.842    488.50362   -361.79294    744.08576    382.29282    1005.9284   -361.79294            0   -8.1681199            0            0            0            0            0            0 
10195000    755.86775    61637.658     461.3753   -360.97545    702.76406    341.78861    1021.2548   -360.97545            0   -8.4962596            0            0            0            0            0            0 
10196000    683.81782    63582.496    444.21068   -355.69006    676.61901    320.92896    955.02329   -355.69006            0   -8.2363791            0            0            0            0            0            0 
10197000    814.76451    63189.906    447.28703   -347.97367    681.30489    333.33123    1084.1856   -347.97367            0   -8.2875506            0            0            0            0            0            0 
10198000    677.44181    63187.318    472.57804    -359.0963      719.828     360.7317    985.00937    -359.0963            0   -8.2878901            0            0            0            0            0            0 
10199000    793.06566    59486.574    455.32218   -375.35653    693.54398    318.18745    1006.2121   -375.35653            0   -8.8034914            0            0            0            0            0            0 
10200000    696.20164    62794.078    443.31101   -367.05351    675.24864    308.19513     945.7677   -367.05351            0   -8.3397919            0            0            0            0            0            0 
10201000    683.88043    64706.233     465.2463   -352.65787    708.66034    356.00247    1001.3627   -352.65787            0     -8.09334            0            0            0            0            0            0 
10202000    816.17418    59027.856    460.34871   -384.30758    701.20037    316.89279    1019.5051   -384.30758            0   -8.8719052            0            0            0            0            0            0 
10203000    654.35976    62564.949    428.34039   -358.00508    652.44549    294.44041     891.5081   -358.00508            0   -8.3703344            0            0            0            0            0            0 
10204000    855.35935    62095.104    445.91388   -348.71217    679.21332    330.50115    1105.1089   -348.71217            0   -8.4336688            0            0            0            0            0            0 
10205000    763.13728     62641.74    466.11416   -351.16406    709.98227    358.81821    1055.9941   -351.16406            0   -8.3600734            0            0            0            0            0            0 
10206000    708.42115    60637.381    468.95976   -377.22151    714.31666    337.09515    963.57606   -377.22151            0   -8.6364144            0            0            0            0            0            0 
10207000    767.97071    62850.089     476.5567     -354.754    725.88828    371.13427    1075.0594     -354.754            0   -8.3323596            0            0            0            0            0            0 
10208000    721.86425    63834.126    468.47297   -352.36758    713.57519    361.20761    1033.2309   -352.36758            0   -8.2039118            0            0            0            0            0            0 
10209000    687.19272    62027.303    448.37541   -367.52694     682.9627    315.43576    937.07344   -367.52694            0   -8.4428876            0            0            0            0            0            0 
10210000    679.33917    64131.486    449.72326   -345.50106    685.01574    339.51468    974.89512   -345.50106            0   -8.1658726            0            0            0            0            0            0 
10211000    512.89118    61870.391    416.02565   -379.82246    633.68774    253.86528    716.65529   -379.82246            0   -8.4642999            0            0            0            0            0            0 
10212000    682.00086    63730.437     471.3264   -357.75788    717.92151    360.16363    994.04459   -357.75788            0   -8.2172596            0            0            0            0            0            0 
10213000    719.34254    62861.189    423.20889   -356.23006    644.62922    288.39916    947.86791   -356.23006            0   -8.3308883            0            0            0            0            0            0 
10214000    725.36761    63393.888    444.78996   -357.83031    677.50137    319.67106    990.29868   -357.83031            0   -8.2608839            0            0            0            0            0            0 
10215000    745.19984    63522.538    472.94114   -352.15235    720.38107    368.22872    1058.5901   -352.15235            0   -8.2441533            0            0            0            0            0            0 
10216000    730.79113    64998.572    489.61328   -345.60146    745.77598    400.17452    1092.9188   -345.60146            0   -8.0569392            0            0            0            0            0            0 
10217000     535.4675     62472.78    457.60726   -383.10524    697.02461    313.91937    801.78457   -383.10524            0   -8.3826835            0            0            0            0            0            0 
10218000    754.78794    61490.311    450.31249   -373.64805    685.91325     312.2652    989.13874   -373.64805            0   -8.5166189            0            0            0            0            0            0 
10219000    608.13815    65562.468    465.51086   -353.39268    709.06333    355.67065    937.14884   -353.39268            0   -7.9876424            0            0            0            0            0            0 
10220000    796.37724    61636.029     489.0451   -370.19606    744.91053    374.71447    1090.5766   -370.19606            0   -8.4964842            0            0            0            0            0            0 
10221000    573.04423    67026.099    459.87492   -354.87968    700.47868    345.59901     905.7537   -354.87968            0   -7.8132183            0            0            0            0            0            0 
10222000    700.53558    62701.117    481.90534   -371.18792    734.03528    362.84736    1003.4392   -371.18792            0   -8.3521565            0            0            0            0            0            0 
10223000    797.01834     63148.79    462.37839   -345.90933    704.29196    358.38262    1092.4049   -345.90933            0   -8.2929466            0            0            0            0            0            0 
10224000    806.95607    63313.678    468.22611   -342.85895    713.19918    370.34022    1115.4552   -342.85895            0   -8.2713493            0            0            0            0            0            0 
10225000    706.56154    62594.419    466.49329   -367.36352    710.55975    343.19623    988.19888   -367.36352            0   -8.3663935            0            0            0            0            0            0 
10226000     734.9712    60934.999     466.1439   -375.11878    710.02756    334.90878    988.05891   -375.11878            0   -8.5942324            0            0            0            0            0            0 
10227000    805.89743     64809.74     453.3208   -328.73275    690.49549    361.76274    1123.4838   -328.73275            0   -8.0804142            0            0            0            0            0            0 
10228000    638.23432    63228.388    476.28303   -368.32582    725.47142     357.1456    945.67499   -368.32582            0   -8.2825067            0            0            0            0            0            0 
10229000     713.8122    61647.715    451.15138   -367.70943    687.19105    319.48161    961.24782   -367.70943            0   -8.4948735            0            0            0            0            0            0 
10230000    626.31285    63757.104    459.60811   -366.79115    700.07228    333.28113    915.64684   -366.79115            0   -8.2138226            0            0            0            0            0            0 
10231000    580.49885    63485.533     464.7791   -374.39386    707.94871    333.55485    871.02212   -374.39386            0   -8.2489587            0            0            0            0            0            0 
10232000    813.52399    61546.044    492.16512    -361.9783    749.66292    387.68462    1117.8923    -361.9783            0   -8.5089067            0            0            0            0            0            0 
10233000    661.15769    66081.074    494.44058   -346.13394    753.12889    406.99494    1044.1689   -346.13394            0   -7.9249551            0            0            0            0            0            0 
10234000    787.65788    61738.377    456.12558   -364.33976    694.76772    330.42796    1039.6279   -364.33976            0    -8.482399            0            0            0            0            0            0 
10235000    649.91481    63259.423    470.44324   -364.97631     716.5763    351.59999    951.19436   -364.97631            0   -8.2784433            0            0            0            0            0            0 
10236000    590.44924    61748.769    436.84077    -384.3712    665.39321    281.02201    812.74661    -384.3712            0   -8.4809715            0            0            0            0            0            0 
10237000     554.1145    64303.966    502.35402   -372.86779    765.18259     392.3148    911.96747   -372.86779            0   -8.1439696            0            0            0            0            0            0 
10238000    950.82138     61421.12    466.99764   -339.35563    711.32797    371.97234    1223.6839   -339.35563            0    -8.526213            0            0            0            0            0            0 
10239000    641.47054    61214.106    467.02472   -384.47591    711.36922     326.8933    899.56289   -384.47591            0   -8.5550469            0            0            0            0            0            0 
10240000    639.49515    62974.146    443.21062   -365.90596    675.09573    309.18977    896.51064   -365.90596            0   -8.3159452            0            0            0            0            0            0 
10241000    651.34116    66205.693    464.92427   -342.04802    708.16983    366.12181    995.01914   -342.04802            0   -7.9100379            0            0            0            0            0            0 
10242000    782.36584    62031.171    467.17291   -358.20698    711.59495    353.38797    1061.1638   -358.20698            0   -8.4423611            0            0            0            0            0            0 
10243000     726.7135     63487.66    452.53994   -347.69407    689.30609    341.61202    1014.4778   -347.69407            0   -8.2486824            0            0            0            0            0            0 
10244000    765.60891    61139.134    454.80312   -365.79721    692.75335    326.95614    1009.6125   -365.79721            0   -8.5655375            0            0            0            0            0            0 
10245000    725.70736    62798.475    455.80187   -356.80315    694.27464    337.47149    1002.1115   -356.80315            0    -8.339208            0            0            0            0            0            0 
10246000    708.82689    63378.665    448.64459   -356.78923    683.37271    326.58348    981.76126   -356.78923            0   -8.2628681            0            0            0            0            0            0 
10247000     821.8837    63401.225     461.7335   -338.39714    703.30967    364.91253    1124.8606   -338.39714            0   -8.2599278            0            0            0            0            0            0 
10248000    698.57754    64449.623    481.15701   -356.59436    732.89544    376.30108    1032.9162   -356.59436            0   -8.1255642            0            0            0            0            0            0 
10249000    661.50827    63067.133    450.72358    -359.4459    686.53942    327.09352    935.52861    -359.4459            0    -8.303684            0            0            0            0            0            0 
10250000    652.17729    62967.063     443.7368   -373.39272     675.8972    302.50448    901.40541   -373.39272            0   -8.3168807            0            0            0            0            0            0 
10251000    652.56576    61938.276    475.81893   -382.98625    724.76452    341.77826    931.24497   -382.98625            0    -8.455023            0            0            0            0            0            0 
10252000    702.02943    63729.907     452.9595   -352.17926    689.94517    337.76591    990.25685   -352.17926            0    -8.217328            0            0            0            0            0            0 
10253000    554.50976    63424.753    447.65419   -375.80826    681.86415    306.05589    818.96908   -375.80826            0   -8.2568637            0            0            0            0            0            0 
10254000     625.9689    65038.109    468.23578   -357.41221     713.2139    355.80169    949.54203   -357.41221            0   -8.0520414            0            0            0            0            0            0 
10255000     828.0823     61411.03    478.32248   -364.50823    728.57791    364.06968    1105.7142   -364.50823            0   -8.5276137            0            0            0            0            0            0 
10256000    619.30088    64447.759    465.88775   -363.56486    709.63739    346.07253    928.15619   -363.56486            0   -8.1257992            0            0            0            0            0            0 
10257000    626.41458    62589.206    451.76049   -378.35401    688.11883    309.76482    881.55566   -378.35401            0   -8.3670904            0            0            0            0            0            0 
10258000     791.7574    60268.627    480.50787   -377.91884    731.90667    353.98784    1049.9078   -377.91884            0   -8.6892563            0            0            0            0            0            0 
10259000    674.75152    62859.171    490.30468   -372.12552    746.82912     374.7036    993.27297   -372.12552            0   -8.3311557            0            0            0            0            0            0 
10260000    685.33168    62275.452    463.06008   -367.81758    705.33031    337.51273    959.94714   -367.81758            0   -8.4092452            0            0            0            0            0            0 
10261000    811.64712    62897.548    479.39333   -355.36758    730.20902    374.84144    1119.3623   -355.36758            0   -8.3260725            0            0            0            0            0            0 
10262000    739.26394    63079.578    501.48909   -354.33823    763.86514    409.52691    1089.6135   -354.33823            0   -8.3020458            0            0            0            0            0            0 
10263000    748.67339    61149.206    455.45535   -372.87787    693.74683    320.86896    988.53473   -372.87787            0   -8.5641267            0            0            0            0            0            0 
10264000    637.35371    63213.527     451.8615   -365.92252     688.2727    322.35018     909.9294   -365.92252            0   -8.2844539            0            0            0            0            0            0 
10265000    756.07774    61571.869     464.3551   -363.30913    707.30287    343.99374    1022.9232   -363.30913            0   -8.5053378            0            0            0            0            0            0 
10266000    606.15444    61342.516    475.18437   -380.87693    723.79794    342.92101     885.1975   -380.87693            0   -8.5371383            0            0            0            0            0            0 
10267000    620.81451    63476.326    455.59902   -366.84516    693.96566     327.1205    901.83153   -366.84516            0   -8.2501553            0            0            0            0            0            0 
10268000    744.17336    60951.694     461.4153   -376.34847    702.82499    326.47652    987.98556   -376.34847            0   -8.5918785            0            0            0            0            0            0 
10269000    661.34769    63981.034    456.52167   -356.20528    695.37103    339.16576     956.2678   -356.20528            0   -8.1850748            0            0            0            0            0            0 
10270000    696.82069    63719.357    482.99797   -361.71447    735.69959    373.98512    1021.5277   -361.71447            0   -8.2186885            0            0            0            0            0            0 
10271000    672.68381    66671.504    483.98376   -340.49758    737.20112    396.70354    1050.7779   -340.49758            0   -7.8547733            0            0            0            0            0            0 
10272000    634.34464    59000.053    464.76563   -396.18576    707.92818    311.74242     857.5676   -396.18576            0    -8.876086            0            0            0            0            0            0 
10273000    605.29909    62763.174    430.70548   -374.27622    656.04798    281.77177    835.82412   -374.27622            0   -8.3438983            0            0            0            0            0            0 
10274000    722.81479    62581.978    472.82913   -361.02108    720.21047    359.18938    1018.8981   -361.02108            0   -8.3680568            0            0            0            0            0            0 
10275000    791.47684    64008.972    451.89525   -335.81231    688.32411    352.51179    1091.3595   -335.81231            0   -8.1815022            0            0            0            0            0            0 
10276000    769.46167    58557.087    462.01946    -388.3604    703.74523    315.38484     972.5013    -388.3604            0   -8.9432308            0            0            0            0            0            0 
10277000    591.40427    63970.212    458.02883    -359.5183    697.66673    338.14843    889.89308    -359.5183            0   -8.1864595            0            0            0            0            0            0 
10278000    658.91245    63476.997    462.86505   -367.91883    705.03324    337.11441    947.10056   -367.91883            0    -8.250068            0            0            0            0            0            0 
10279000    654.73249    63827.432    440.47649   -370.86078    670.93111    300.07033    909.53307   -370.86078            0   -8.2047723            0            0            0            0            0            0 
10280000    764.96565     60387.31    491.51858   -387.58421    748.67813    361.09392    1034.7892   -387.58421            0   -8.6721788            0            0            0            0            0            0 
10281000    677.71492    62573.526    471.61437   -374.87266    718.36014    343.48749    961.95026   -374.87266            0   -8.3691871            0            0            0            0            0            0 
10282000    775.88336    63042.366    480.14293   -354.34279    731.35079    377.00801    1090.3616   -354.34279            0   -8.3069463            0            0            0            0            0            0 
10283000    614.24225    63649.444    439.25416   -360.53759    669.06927    308.53168    878.70933   -360.53759            0   -8.2277159            0            0            0            0            0            0 
10284000    598.52214    62028.678    425.93314   -368.27306    648.77878    280.50572    821.94359   -368.27306            0   -8.4427005            0            0            0            0            0            0 
10285000    651.96503    62656.822    488.43179   -368.52759    743.97633    375.44875    971.20492   -368.52759            0   -8.3580611            0            0            0            0            0            0 
10286000    727.58982    60715.671    457.80825   -376.07958    697.33075    321.25117    965.51434   -376.07958            0   -8.6252781            0            0            0            0            0            0 
10287000    744.39981    63658.903    438.22739   -348.67718     667.5053    318.82811    1009.9287   -348.67718            0   -8.2264934            0            0            0            0            0            0 
10288000     663.0814    62822.101    465.86632   -373.54306    709.60475    336.06169    943.57415   -373.54306            0   -8.3360718            0            0            0            0            0            0 
10289000     617.5287    63344.364    461.13023   -371.15852    702.39077    331.23225    901.71302   -371.15852            0   -8.2673424            0            0            0            0            0            0 
10290000    603.67237    62820.144    411.92369   -367.10635    627.43967    260.33332    813.39824   -367.10635            0   -8.3363315            0            0            0            0            0            0 
10291000    651.04763    63437.326    447.22731   -370.73745    681.21392    310.47647    912.80511   -370.73745            0   -8.2552274            0            0            0            0            0            0 
10292000    682.30425     66665.66    469.83055   -344.18383    715.64304    371.45922    1034.8297   -344.18383            0   -7.8554618            0            0            0            0            0            0 
10293000    732.41834    60752.444    472.53667   -373.06741    719.76499    346.69758    995.62908   -373.06741            0   -8.6200572            0            0            0            0            0            0 
10294000    740.93497    61064.257    493.24262   -377.31445    751.30417    373.98972    1033.8364   -377.31445            0   -8.5760406            0            0            0            0            0            0 
10295000    673.90897    62754.486     463.1447   -361.04418     705.4592    344.41501    961.18311   -361.04418            0   -8.3450535            0            0            0            0            0            0 
10296000    603.68296    63926.031     462.0096    -373.0299    703.73022    330.70031    893.51127    -373.0299            0   -8.1921173            0            0            0            0            0            0 
10297000    713.76381    60118.425    440.41951   -382.54022    670.84433    288.30411    914.10764   -382.54022            0   -8.7109658            0            0            0            0            0            0 
10298000     622.3519     64930.21    493.29064   -356.06584    751.37731    395.31147     984.6417   -356.06584            0    -8.065422            0            0            0            0            0            0 
10299000    786.67713    61950.951    448.11534   -354.44579    682.56657    328.12078    1038.8766   -354.44579            0    -8.453293            0            0            0            0            0            0 
10300000    692.06726    65624.477    448.90242   -339.11353    683.76545    344.65192    1007.0057   -339.11353            0   -7.9800948            0            0            0            0            0            0 
10301000    677.64271    61875.497    460.90615   -369.24432    702.04945    332.80513    944.30358   -369.24432            0   -8.4636015            0            0            0            0            0            0 
10302000    718.21872    63658.205    477.21528   -356.84089    726.89142    370.05053    1036.8373   -356.84089            0   -8.2265835            0            0            0            0            0            0 
10303000    779.20505     65314.16    465.82868   -330.69135    709.54741    378.85606    1121.0801   -330.69135            0   -8.0180094            0            0            0            0            0            0 
10304000     793.7125    59629.449    409.10958   -371.77104    623.15322    251.38219    941.62184   -371.77104            0   -8.7823979            0            0            0            0            0            0 
10305000     727.7178    62731.454    471.24166    -357.3994    717.79245    360.39304    1026.1631    -357.3994            0   -8.3481175            0            0            0            0            0            0 
10306000    648.93635    63733.814    455.52109   -359.94565    693.84696    333.90131    937.08265   -359.94565            0   -8.2168242            0            0            0            0            0            0 
10307000    702.19648    62936.787    439.53026   -356.17769    669.48983    313.31214    957.83615   -356.17769            0   -8.3208815            0            0            0            0            0            0 
10308000    637.53191    63815.521    464.46813    -366.0874    707.47504    341.38764    934.72833    -366.0874            0   -8.2063037            0            0            0            0            0            0 
10309000    708.30283    63268.605    472.98436   -357.61543     720.4469    362.83148     1016.388   -357.61543            0   -8.2772419            0            0            0            0            0            0 
10310000    726.62259    61612.993     469.1245   -378.01921     714.5676    336.54839    989.46406   -378.01921            0   -8.4996609            0            0            0            0            0            0 
10311000     664.9275    63309.988    431.87488   -355.60524     657.8292    302.22396    916.15899   -355.60524            0   -8.2718313            0            0            0            0            0            0 
10312000    584.14292    63277.607    444.36013   -370.75861    676.84666    306.08804     845.1579   -370.75861            0   -8.2760643            0            0            0            0            0            0 
10313000    718.51769    59622.659    454.08925   -377.91225      691.666    313.75375    938.53025   -377.91225            0   -8.7833981            0            0            0            0            0            0 
10314000    603.96056    62951.716    473.78514   -376.85829    721.66664    344.80836    899.29622   -376.85829            0   -8.3189082            0            0            0            0            0            0 
10315000     612.1838     63936.02     466.9515   -363.49714    711.25769    347.76055      918.586   -363.49714            0   -8.1908374            0            0            0            0            0            0 
10316000    750.01344    60000.607    448.52051   -379.67851    683.18372    303.50521    959.80244   -379.67851            0   -8.7280709            0            0            0            0            0            0 
10317000    609.79453    63998.397    463.25343   -366.78001    705.62481    338.84481    907.99712   -366.78001            0   -8.1828541            0            0            0            0            0            0 
10318000    693.01496     63844.93    469.34562   -358.93829     714.9044    355.96611    1001.2412   -358.93829            0   -8.2025236            0            0            0            0            0            0 
10319000    635.66324    63853.679    470.25866   -367.74097    716.29514    348.55416    940.50946   -367.74097            0   -8.2013998            0            0            0            0            0            0 
10320000    633.38783     60145.17    450.86226   -392.52444    686.75066    294.22622    849.80591   -392.52444            0   -8.7070923            0            0            0            0            0            0 
10321000    694.14401      63941.6    468.09259   -351.97492    712.99579    361.02087    1008.3259   -351.97492            0   -8.1901226            0            0            0            0            0            0 
10322000    728.84142    60086.104    468.91502   -397.19568    714.24851    317.05283    955.73234   -397.19568            0   -8.7156515            0            0            0            0            0            0 
10323000    590.10601    62235.925    450.81392   -386.11097    686.67703    300.56606    836.17408   -386.11097            0    -8.414586            0            0            0            0            0            0 
10324000    726.82653    61493.836    454.82027   -374.65114    692.77948    318.12834    969.96419   -374.65114            0   -8.5161308            0            0            0            0            0            0 
10325000    750.92863    62428.721    475.23656   -367.86871    723.87744    356.00873    1039.6984   -367.86871            0   -8.3885997            0            0            0            0            0            0 
10326000    651.41641    64535.933    488.35842   -359.81412    743.86459    384.05047    997.15734   -359.81412            0   -8.1146971            0            0            0            0            0            0 
10327000    756.40239    61493.231    484.31367   -372.46622    737.70365    365.23744     1043.591   -372.46622            0   -8.5162145            0            0            0            0            0            0 
10328000    669.57553    64827.204    478.22017   -359.09648    728.42207    369.32558    1002.3679   -359.09648            0   -8.0782374            0            0            0            0            0            0 
10329000    662.67216    61643.333    451.23524   -368.74789    687.31879     318.5709    914.31634   -368.74789            0   -8.4954775            0            0            0            0            0            0 
10330000    639.60321    65382.838    480.30782    -356.7363    731.60197    374.86566    984.75396    -356.7363            0   -8.0095872            0            0            0            0            0            0 
10331000    778.44579    60720.521    451.48424   -371.63521    687.69806    316.06285    1005.4128   -371.63521            0   -8.6245891            0            0            0            0            0            0 
10332000    651.40986    62326.388    474.63858   -372.74873    722.96661    350.21788    942.32758   -372.74873            0   -8.4023728            0            0            0            0            0            0 
10333000    706.85054    64122.508    451.96666   -349.87795    688.43287    338.55492    999.57398   -349.87795            0   -8.1670159            0            0            0            0            0            0 
10334000    733.81345    60647.093    475.36533   -375.18461    724.07359    348.88898     997.9291   -375.18461            0   -8.6350313            0            0            0            0            0            0 
10335000    726.65811    64048.612    483.53248   -352.61707    736.51373    383.89666    1062.6559   -352.61707            0   -8.1764386            0            0            0            0            0            0 
10336000    843.24089    60008.996    460.34108   -366.22855    701.18874    334.96019     1072.939   -366.22855            0   -8.7268507            0            0            0            0            0            0 
10337000    673.89161    61359.997    447.38981   -375.28229    681.46144    306.17915    909.22629   -375.28229            0   -8.5347062            0            0            0            0            0            0 
10338000    724.62291    66365.309    469.70502     -326.184    715.45184    389.26783    1090.6086     -326.184            0   -7.8910135            0            0            0            0            0            0 
10339000    798.10927    62019.405     443.2182   -363.15418    675.10728     311.9531    1033.8345   -363.15418            0   -8.4439628            0            0            0            0            0            0 
10340000     654.0979    63342.153    478.90711   -362.01185    729.46841    367.45656    971.69933   -362.01185            0    -8.267631            0            0            0            0            0            0 
10341000    699.69444    62349.843    498.50923   -382.15253    759.32623     377.1737    1013.4118   -382.15253            0   -8.3992119            0            0            0            0            0            0 
10342000    698.41004    61058.996    465.56597    -378.6585    709.14727    330.48877    952.41092    -378.6585            0   -8.5767795            0            0            0            0            0            0 
10343000    601.52043    65253.338    449.80012   -350.28537    685.13281    334.84744    907.28617   -350.28537            0   -8.0254828            0            0            0            0            0            0 
10344000      615.653    62554.362    471.19207   -374.61196     717.7169    343.10494    904.75976   -374.61196            0    -8.371751            0            0            0            0            0            0 
10345000    680.54835    62235.227    468.46945   -374.11731    713.56982    339.45252    957.14334   -374.11731            0   -8.4146804            0            0            0            0            0            0 
10346000    686.72198     62054.25    460.79833   -372.82776    701.88522    329.05746    950.53919   -372.82776            0   -8.4392213            0            0            0            0            0            0 
10347000    564.55703    67097.529    436.05492   -343.67073    664.19621    320.52548    872.97199   -343.67073            0   -7.8049006            0            0            0            0            0            0 
10348000    749.43546    60057.878    448.68098   -372.90257    683.42815    310.52559    966.94302   -372.90257            0   -8.7197478            0            0            0            0            0            0 
10349000    655.56852    64665.029    470.44113    -352.2038    716.57308    364.36928    982.61833    -352.2038            0   -8.0984971            0            0            0            0            0            0 
10350000    705.47624    61126.866    472.16369    -383.7978    719.19687    335.39906    964.31183    -383.7978            0   -8.5672566            0            0            0            0            0            0 
10351000    572.93095    64451.488    474.47037   -373.11519    722.71039     349.5952    888.12672   -373.11519            0    -8.125329            0            0            0            0            0            0 
10352000     609.6905    61487.866    454.33145   -382.11194    692.03491    309.92296    856.65527   -382.11194            0   -8.5169575            0            0            0            0            0            0 
10353000    718.89754     62475.94    449.86333   -358.01253    685.22909    327.21656    982.23826   -358.01253            0   -8.3822595            0            0            0            0            0            0 
[...]
14939000    678.31206    65574.251    466.74834   -342.82599    710.94824    368.12225    1016.8146   -342.82599            0    -7.986207            0            0            0            0            0            0 
14940000    623.72624    60338.866    433.01904   -389.84224    659.57197    269.72973    818.59664   -389.84224            0   -8.6791414            0            0            0            0            0            0 
14941000    730.75384    63906.427     458.1467   -349.03488    697.84627    348.81139     1029.881   -349.03488            0   -8.1946303            0            0            0            0            0            0 
14942000     648.6951    62148.341    460.43724    -370.3192    701.33522    331.01602    918.97368    -370.3192            0   -8.4264445            0            0            0            0            0            0 
14943000    763.74465    60600.226    452.03162   -371.88258    688.53182    316.64924    991.64076   -371.88258            0   -8.6417094            0            0            0            0            0            0 
14944000    750.51618    63448.606    432.11629   -348.69389    658.19691    309.50302    1003.9803   -348.69389            0   -8.2537597            0            0            0            0            0            0 
14945000    771.25164    61434.409    484.42785   -364.48284    737.87756    373.39472    1064.4037   -364.48284            0   -8.5243686            0            0            0            0            0            0 
14946000    643.98784    65033.809    467.64004   -351.22958    712.30647    361.07689    971.86806   -351.22958            0   -8.0525738            0            0            0            0            0            0 
14947000    656.67226    64380.161    418.37642   -355.23155    637.26842    282.03687    898.59868   -355.23155            0   -8.1343311            0            0            0            0            0            0 
14948000    757.66503    62967.943    462.46323   -350.27303    704.42118    354.14816    1049.9293   -350.27303            0   -8.3167643            0            0            0            0            0            0 
14949000    672.95801    64466.654     475.4627   -344.73093    724.22191    379.49098    1012.1927   -344.73093            0   -8.1234174            0            0            0            0            0            0 
14950000    676.43813    59988.965    456.86776   -394.67744     695.8982    301.22076    893.02128   -394.67744            0   -8.7297646            0            0            0            0            0            0 
14951000    756.93896    63574.483    449.73785   -343.10663    685.03796    341.93133    1043.7414   -343.10663            0   -8.2374173            0            0            0            0            0            0 
14952000    610.30092    66179.548    462.01412    -343.3894     703.7371    360.34771    949.38624    -343.3894            0   -7.9131629            0            0            0            0            0            0 
14953000    796.10426    59495.831    459.42448   -376.73205    699.79258    323.06053    1013.8288   -376.73205            0   -8.8021217            0            0            0            0            0            0 
14954000    732.09067    63218.503    451.93418   -360.94059     688.3834    327.44281    1002.4136   -360.94059            0   -8.2838018            0            0            0            0            0            0 
14955000    739.76059    61553.434    435.94787    -373.5109    664.03315    290.52225    954.60066    -373.5109            0   -8.5078851            0            0            0            0            0            0 
14956000     650.7158    61788.119    462.07676   -381.85915    703.83252    321.97337    908.34401   -381.85915            0   -8.4755703            0            0            0            0            0            0 
14957000    644.43214    67979.373    459.22153   -326.06055    699.48345    373.42289     1012.319   -326.06055            0   -7.7036536            0            0            0            0            0            0 
14958000    861.80651    60754.933    453.45748   -350.77913    690.70369    339.92456    1103.5268   -350.77913            0   -8.6197041            0            0            0            0            0            0 
14959000    702.77238    62033.904    463.57083   -375.10814    706.10828    331.00014    966.79891   -375.10814            0   -8.4419892            0            0            0            0            0            0 
14960000     701.2626     63038.29    474.86142   -364.73059    723.30604    358.57544    1003.2804   -364.73059            0   -8.3074833            0            0            0            0            0            0 
14961000    763.66583    61756.268    476.50586   -370.92393    725.81084    354.88691    1042.6839   -370.92393            0   -8.4799415            0            0            0            0            0            0 
14962000     831.3668    59570.766    443.98146   -371.41066    676.26986     304.8592    1027.1328   -371.41066            0   -8.7910493            0            0            0            0            0            0 
14963000    636.72266    64002.832    470.94577   -365.00928    717.34173    352.33245    946.65935   -365.00928            0    -8.182287            0            0            0            0            0            0 
14964000     657.3398    63762.709    433.19449   -352.29553    659.83922     307.5437    918.81299   -352.29553            0   -8.2131006            0            0            0            0            0            0 
14965000    620.08505    60411.409    466.06874   -392.15674    709.91308    317.75634     864.0751   -392.15674            0   -8.6687192            0            0            0            0            0            0 
14966000    533.98782    63308.846    407.94642   -374.22887    621.38152    247.15265    740.18071   -374.22887            0   -8.2719806            0            0            0            0            0            0 
14967000    648.01385    63763.178    459.92437   -356.84357      700.554    343.71044    946.31183   -356.84357            0   -8.2130402            0            0            0            0            0            0 
14968000    738.68686    62570.632    531.18398   -374.49613    809.09622    434.60009    1108.6729   -374.49613            0   -8.3695742            0            0            0            0            0            0 
14969000    657.48982    62370.701    465.85331   -376.11046    709.58493    333.47447    931.53556   -376.11046            0   -8.3964031            0            0            0            0            0            0 
14970000    737.72238    64030.594    446.72787   -340.45755    680.45317    339.99562    1028.8959   -340.45755            0   -8.1787394            0            0            0            0            0            0 
14971000    710.63796    62683.385    462.30849   -354.46927    704.18549    349.71622    999.36216   -354.46927            0   -8.3545193            0            0            0            0            0            0 
14972000    718.01689    61816.949    462.85742   -372.89428    705.02162    332.12734    979.44599   -372.89428            0   -8.4716175            0            0            0            0            0            0 
14973000    611.32066     64839.41    461.25257   -364.47639    702.57711    338.10072     916.1755   -364.47639            0   -8.0767167            0            0            0            0            0            0 
14974000    714.28842    63118.651    465.58438   -357.80899     709.1753    351.36631    1008.8836   -357.80899            0   -8.2969065            0            0            0            0            0            0 
14975000    705.48873    63548.005    446.65223   -354.53634    680.33797    325.80163    979.63622   -354.53634            0   -8.2408495            0            0            0            0            0            0 
14976000    640.10201    63597.566    457.73924   -366.52026    697.22564    330.70538    924.40336   -366.52026            0   -8.2344275            0            0            0            0            0            0 
14977000    827.26822    61388.964    457.73597   -353.68919    697.22065    343.53146    1084.1806   -353.68919            0   -8.5306789            0            0            0            0            0            0 
14978000    789.17528     63371.11    473.31944    -351.3076    720.95729    369.64969    1099.0076    -351.3076            0   -8.2638531            0            0            0            0            0            0 
14979000    655.62197    64577.039    494.41923    -362.8991    753.09638    390.19728    1007.6554    -362.8991            0   -8.1095317            0            0            0            0            0            0 
14980000    657.31422    61192.787    440.37811   -389.80869    670.78127    280.97258    867.58216   -389.80869            0   -8.5580273            0            0            0            0            0            0 
14981000    723.24907    64104.904    458.83242   -347.85341    698.89075    351.03734     1027.206   -347.85341            0   -8.1692587            0            0            0            0            0            0 
14982000    684.15278    63861.197    466.43597   -361.61496    710.47243    348.85747     986.0432   -361.61496            0   -8.2004342            0            0            0            0            0            0 
14983000    623.81791    62659.367    462.78126   -372.85317    704.90561    332.05244    902.11134   -372.85317            0   -8.3577216            0            0            0            0            0            0 
14984000    661.14989    62160.215    468.09863   -366.63647    713.00499    346.36853    945.72931   -366.63647            0   -8.4248348            0            0            0            0            0            0 
14985000    767.79399    60889.396    474.49292   -369.94369    722.74474    352.80105    1034.6093   -369.94369            0   -8.6006691            0            0            0            0            0            0 
14986000     682.1422    61190.374    456.33111   -379.39077    695.08077    315.69001    924.43291   -379.39077            0   -8.5583649            0            0            0            0            0            0 
14987000    590.94868     64849.85    443.69786   -349.03433    675.83789    326.80357    885.70424   -349.03433            0   -8.0754164            0            0            0            0            0            0 
14988000     847.0791    61361.731    468.10294   -350.32744    713.01156    362.68411    1120.7334   -350.32744            0   -8.5344651            0            0            0            0            0            0 
14989000    653.54201    66490.011    481.15414   -336.64257    732.89107     396.2485    1029.9807   -336.64257            0   -7.8762138            0            0            0            0            0            0 
14990000    638.25731     61903.14    440.22093   -377.48215    670.54184    293.05969    869.27443   -377.48215            0   -8.4598221            0            0            0            0            0            0 
14991000    620.83757     66194.33    446.25793   -342.71419    679.73737    337.02318    936.36512   -342.71419            0   -7.9113959            0            0            0            0            0            0 
14992000    789.15697    61818.867    472.01208   -353.26147    718.96593    365.70446    1077.1806   -353.26147            0   -8.4713547            0            0            0            0            0            0 
14993000    599.80264    64953.163     469.3379   -361.19038    714.89264    353.70226    921.88046   -361.19038            0   -8.0625719            0            0            0            0            0            0 
14994000    718.42005    60588.132    460.70196   -382.36705    701.73844    319.37138    954.17865   -382.36705            0   -8.6434345            0            0            0            0            0            0 
14995000    734.12552    62590.191     461.4878   -355.21231    702.93542    347.72311     1017.843   -355.21231            0   -8.3669588            0            0            0            0            0            0 
14996000    654.25768    62833.255    477.02611   -374.55212    726.60327    352.05116    951.58579   -374.55212            0    -8.334592            0            0            0            0            0            0 
14997000    653.24996    62662.649    475.73451   -368.81371    724.63592    355.82221    952.80805   -368.81371            0   -8.3572839            0            0            0            0            0            0 
14998000    714.91201    63360.313    465.45577    -364.0722    708.97941    344.90721    1005.5182    -364.0722            0   -8.2652614            0            0            0            0            0            0 
14999000    709.54741    63711.161    441.76943   -350.75428    672.90051    322.14624    981.43068   -350.75428            0   -8.2197457            0            0            0            0            0            0 
15000000    651.50115    60586.499    449.03048    -386.4046    683.96051    297.55591    873.21707    -386.4046            0   -8.6436674            0            0            0            0            0            0 
Loop time of 1364.83 on 8 procs for 5000000 steps with 512 atoms

Pair  time (%) = 744.969 (54.5831)
Bond  time (%) = 0.455695 (0.0333883)
Neigh time (%) = 34.2674 (2.51074)
Comm  time (%) = 427.17 (31.2983)
Outpt time (%) = 0.288197 (0.0211159)
Other time (%) = 157.684 (11.5533)

Nlocal:    64 ave 77 max 56 min
Histogram: 2 0 1 3 0 1 0 0 0 1
Nghost:    1226.25 ave 1267 max 1167 min
Histogram: 1 0 1 0 1 0 2 0 2 1
Neighs:    5471.75 ave 6664 max 4641 min
Histogram: 1 0 2 3 0 0 1 0 0 1

Total # of neighbors = 43774
Ave neighs/atom = 85.4961
Ave special neighs/atom = 0
Neighbor list builds = 99283
Dangerous builds = 0

Averages
Group Pressure(MPa) Volume(m3) Temperature(K) PE(J) KE(J) ET(J) ET^2(J) H(J) H^2(J^2) V^2(m6) V*H(m3*J) Hconf(J) Uext*Hconf(J^2) V*Hconf(m3*J) Uext(J)
Block1 70.063824044853035389 6.2861349724913590268e-26 460.44530850055321025 -2.5306026501460444398e-18 4.8727484215653463928e-18 2.342145771419303879e-18 5.525027445621199715e-36 6.7399699755052883846e-18 4.5704120895136438716e-35 3.9546759334735200435e-51 4.2363258081070617379e-43 1.8672215539399412214e-18 -4.7009753525980879597e-36 1.1730311703999686586e-43 -2.5306026501460444398e-18
Block2 69.954514960004090085 6.2899404501113997275e-26 460.12159499001290897 -2.5304985252809833614e-18 4.8693226629173519623e-18 2.3388241376363686009e-18 5.5083328587455839862e-36 6.7324854200454061921e-18 4.5598223439165057012e-35 3.9594885936609289751e-51 4.2340279844616486568e-43 1.8631627571280654002e-18 -4.6912806502334430869e-36 1.1712771072329682296e-43 -2.5304985252809833614e-18
Block3 69.787881904442059522 6.2879433620500293624e-26 458.89308070636656112 -2.5312607131550138799e-18 4.8563216812024920228e-18 2.325060968047470054e-18 5.4471445005205516299e-36 6.7065025961079833777e-18 4.5267940668714732566e-35 3.9573566043303588785e-51 4.2164967466614880055e-43 1.8501809149055002142e-18 -4.6578406802298464705e-36 1.1629553428143322963e-43 -2.5312607131550138799e-18
Block4 69.744034702255561342 6.2903774329905267843e-26 459.50594749475743583 -2.5298177704704432293e-18 4.8628074583852054899e-18 2.3329896879147607199e-18 5.4818789354295512396e-36 6.713748078499292545e-18 4.5351480514231889338e-35 3.96007476049181248e-51 4.2224461948893259861e-43 1.8509406201140974551e-18 -4.6594561299656250791e-36 1.1637488554216710817e-43 -2.5298177704704432293e-18
Block5 70.087426572675127545 6.2946930154004751845e-26 460.42832072959174639 -2.5262151234219394388e-18 4.8725686453082855816e-18 2.3463535218863534613e-18 5.5445354047097098268e-36 6.7523466493328557014e-18 4.5881153883940863345e-35 3.9652861724648431073e-51 4.2500101868141918548e-43 1.8797780040245597198e-18 -4.7228802146813187507e-36 1.1828232006707043233e-43 -2.5262151234219394388e-18
Ave_blocks 69.927536436845983303 6.2898178466087575579e-26 459.87885048425641799 -2.5296789564948849469e-18 4.866753773875736598e-18 2.337074817380851266e-18 5.5013838290053187449e-36 6.7290105438981653942e-18 4.5560583880237792988e-35 3.9593764128842924595e-51 4.2318613841867437262e-43 1.862256770022432648e-18 -4.6864866055416640021e-36 1.1707671353079287586e-43 -2.5296789564948849469e-18
Stdev_blocks 0.14003091327431299584 2.8695885910971158744e-29 0.5987513381010554081 1.7913272155160731737e-21 6.3363977953048181124e-21 7.4281883669814711086e-21 3.4034434723268533736e-38 1.6830378997670864115e-20 2.2545465408457161511e-37 3.5099762247948217919e-54 1.1650941166191679906e-45 1.1012221015703202165e-20 2.4934462451871048691e-38 7.225164258599140315e-46 1.7913272155160731737e-21






Properties
Group rho(kg/m3) Cp(J/K) Cp_conf(J/K) Cp_id(J/K) Cp2(J/K) kT(1/Pa) aP(1/K) aP2(1/K) Cv(J/K) uJT(K/Pa) sos(m/s) Cv2(J/K) uJT2(K/Pa) sos2(m/s) CvNVT(J/K)
Block1 216.97329471713001681 9.4607119410293992706e-20 -5.4054179708051677282e-22 3.7516773956708241479e-20 3.6976232159627724706e-20 7.8240838159229485539e-09 -0.00027732795436735202879 -0.00039646305516272486742 9.4322597604620068182e-20 -7.4929233345272291143e-07 768.6597572332289019 3.6394753599347076804e-20 -2.0103903703328909992e-06 773.60994971161028388 1.3453749797889228351e-20
Block2 216.84202367827973035 9.3008462167135555801e-20 -5.8083152864107418508e-22 3.7500331695745522131e-20 3.6919500167104447946e-20 7.8920792620941681091e-09 -0.00036183599763867395002 -0.00034873817080101685148 9.252834055699041217e-20 -7.8886838727054589127e-07 766.40159538060856903 3.6473508563538730004e-20 -1.9770681106894405957e-06 769.0803056806882978 1.30805829155841943e-20
Block3 216.91089398956543732 1.0000778177713591164e-19 6.5723281000334599125e-22 3.7437957406960115207e-20 3.8095190216963458189e-20 8.8693822967534692704e-09 -0.00028121211343321180203 -0.0002340805975270926194 9.975050842539354327e-20 -7.0988267290519182353e-07 721.89156750048903177 3.7916928703002329415e-20 -1.8278899283653119645e-06 722.6551928287433384 1.4183069918530251309e-20
Block4 216.82695999524449348 9.5042905577025728235e-20 -4.9569033783304630579e-22 3.7469068934801167087e-20 3.6973378596968120781e-20 7.9933871219232940132e-09 -0.00041158385189932254842 -0.00030683165744261101625 9.4430338502669143999e-20 -7.8701786869781566381e-07 762.04745226919385459 3.6632941148283906721e-20 -1.9411977294382339481e-06 763.10906244480588612 1.3391296907089324807e-20
Block5 216.67830546796750468 9.8045376390473379856e-20 7.0864912413150465895e-22 3.751591103526181597e-20 3.8224560159393320629e-20 7.4226597238896572692e-09 -0.00020882769817697711327 -0.00023846541984037428652 9.7875100470579499101e-20 -7.0374852707396237652e-07 789.20523521195514149 3.8002521880125482435e-20 -1.8275754033666777152e-06 790.81982562911105106 1.3379551661875130405e-20
Ave_blocks 216.84629556963741948 9.614232906441291124e-20 -5.0236345883957321525e-23 3.7488008605895372375e-20 3.7437772260011410839e-20 8.0003184441167079395e-09 -0.00030815752310310747224 -0.00030491578015476392821 9.5781377112050533344e-20 -7.4776195788004777566e-07 761.64112151909500881 3.7084130778859508687e-20 -1.9168243084385111716e-06 763.85486725899181693 1.3497650240193626135e-20
Stdev_blocks 0.098908570986530386371 2.5278463646389912696e-21 5.9946304398419442449e-22 3.0402905030292846138e-23 5.9135780531923541231e-22 4.7576968901792264864e-10 7.0882036719178902564e-05 6.2830326360645098998e-05 2.6333731482076557654e-21 3.6345919832328935717e-08 21.96313216143516911 7.1953694353463721013e-22 7.5964041907769928781e-08 22.572307007649541788 3.6631430308021496646e-22






