LAMMPS (28 Oct 2012)
Scanning data file ...
Reading data file ...
  orthogonal box = (0 0 0) to (100 100 100)
  2 by 2 by 2 MPI processor grid
  512 atoms
Finding 1-2 1-3 1-4 neighbors ...
  0 = max # of 1-2 neighbors
  0 = max # of 1-3 neighbors
  0 = max # of 1-4 neighbors
  1 = max # of special neighbors
WARNING: Resetting reneighboring criteria during minimization (min.cpp:173)
Setting up minimization ...
Memory usage per processor = 4.05499 Mbytes
Step Temp E_pair E_mol TotEng Press 
       0       300.15    1409.7233            0      1866.91    433.41551 
     701       300.15   -217.27527            0    239.91139    20.670609 
Loop time of 0.0485789 on 8 procs for 701 steps with 512 atoms

Minimization stats:
  Stopping criterion = energy tolerance
  Energy initial, next-to-last, final = 
         1409.72334813     -217.256630745     -217.275265106
  Force two-norm initial, final = 5034.49 0.337455
  Force max component initial, final = 2457.89 0.147661
  Final line search alpha, max atom move = 0.254892 0.0376377
  Iterations, force evaluations = 701 710

Pair  time (%) = 0.00893471 (18.3922)
Bond  time (%) = 5.72503e-05 (0.11785)
Neigh time (%) = 0.00314274 (6.46937)
Comm  time (%) = 0.018133 (37.327)
Outpt time (%) = 0 (0)
Other time (%) = 0.0183111 (37.6936)

Nlocal:    64 ave 74 max 52 min
Histogram: 1 0 0 1 1 2 0 2 0 1
Nghost:    235.125 ave 266 max 224 min
Histogram: 4 0 2 0 0 1 0 0 0 1
Neighs:    316.25 ave 371 max 226 min
Histogram: 1 0 0 1 1 1 0 1 0 3

Total # of neighbors = 2530
Ave neighs/atom = 4.94141
Ave special neighs/atom = 0
Neighbor list builds = 60
Dangerous builds = 0
Setting up run ...
Memory usage per processor = 3.36354 Mbytes
Step Temp E_pair E_mol TotEng Press Volume 
     701       300.15   -217.27527            0    239.91139    20.670609      1000000 
 5000701    294.27175   -559.23344            0   -111.00049    559.14719     45259.22 
Loop time of 1689.01 on 8 procs for 5000000 steps with 512 atoms

Pair  time (%) = 1032.38 (61.1234)
Bond  time (%) = 0.45743 (0.0270827)
Neigh time (%) = 33.6271 (1.99093)
Comm  time (%) = 470.428 (27.8522)
Outpt time (%) = 5.12302e-05 (3.03314e-06)
Other time (%) = 152.119 (9.00638)

Nlocal:    64 ave 67 max 59 min
Histogram: 1 1 0 0 0 1 0 2 1 2
Nghost:    1515.75 ave 1528 max 1502 min
Histogram: 1 0 0 1 2 1 1 1 0 1
Neighs:    7316.88 ave 7795 max 6841 min
Histogram: 1 1 1 0 1 0 1 1 1 1

Total # of neighbors = 58535
Ave neighs/atom = 114.326
Ave special neighs/atom = 0
Neighbor list builds = 79865
Dangerous builds = 14
Setting up run ...
Memory usage per processor = 3.96682 Mbytes
Step Press Volume Temp PotEng KinEng TotEng Enthalpy E_vdwl E_coul E_tail E_long E_bond E_angle E_dihed E_impro E_mol 
10000000    559.14719     45259.22    294.27175   -559.23344    448.23295   -111.00049    258.06981   -559.23344            0   -11.570892            0            0            0            0            0            0 
10001000    738.46433    43942.348    273.74311   -561.00132    416.96385   -144.03747    329.21041   -561.00132            0    -11.91765            0            0            0            0            0            0 
10002000    640.32915    44469.347     297.8869   -561.39803    453.73951   -107.65852    307.62042   -561.39803            0   -11.776416            0            0            0            0            0            0 
10003000    576.39912    45890.149    292.12353   -551.55721     444.9608   -106.59641    279.16489   -551.55721            0   -11.411808            0            0            0            0            0            0 
10004000    762.32203    43806.869    306.65496   -568.35308    467.09497   -101.25811    385.77285   -568.35308            0   -11.954508            0            0            0            0            0            0 
10005000    654.65418    45093.535    296.71808   -558.04301    451.95918   -106.08383    324.44488   -558.04301            0   -11.613406            0            0            0            0            0            0 
10006000    788.67997    44206.081    301.49126   -552.66573    459.22966   -93.436074    415.02617   -552.66573            0    -11.84655            0            0            0            0            0            0 
10007000    615.87887    44895.829    305.87817   -562.10502    465.91177   -96.193252    307.05936   -562.10502            0   -11.664548            0            0            0            0            0            0 
10008000    591.77712    44720.949    311.55358   -572.27458    474.55652   -97.718055    288.24441   -572.27458            0   -11.710162            0            0            0            0            0            0 
10009000    751.46379    43818.349    292.34512   -568.19013    445.29831   -122.89182    357.32786   -568.19013            0   -11.951376            0            0            0            0            0            0 
10010000    1003.5254    43842.797    286.35278   -539.08865    436.17081   -102.91784    538.73853   -539.08865            0   -11.944711            0            0            0            0            0            0 
10011000    675.67187    46041.285    300.40573   -536.77787    457.57619   -79.201677    374.48828   -536.77787            0   -11.374347            0            0            0            0            0            0 
10012000    896.63063    42581.907    302.00779   -575.07394    460.01644   -115.05751    441.76217   -575.07394            0   -12.298405            0            0            0            0            0            0 
10013000    749.99964    44204.642    287.18177   -553.90233    437.43353   -116.46881    367.04049   -553.90233            0   -11.846935            0            0            0            0            0            0 
10014000    586.51953    45317.396    286.09012   -559.26713    435.77074   -123.49639     264.1389   -559.26713            0   -11.556038            0            0            0            0            0            0 
10015000    883.37001    42281.966     293.9598   -580.30619    447.75779    -132.5484    412.17209   -580.30619            0   -12.385648            0            0            0            0            0            0 
10016000    755.16396    44201.064    299.12557    -559.5965    455.62626   -103.97024    382.82897    -559.5965            0   -11.847895            0            0            0            0            0            0 
10017000    601.79999    45031.871    301.68292   -564.56096    459.52159   -105.03937    290.18895   -564.56096            0   -11.629309            0            0            0            0            0            0 
10018000    484.77238    45068.481    281.35318   -564.09268    428.55546   -135.53722     183.0928   -564.09268            0   -11.619862            0            0            0            0            0            0 
10019000    596.28488    45163.538    310.97879   -559.57107      473.681   -85.890069    306.86124   -559.57107            0   -11.595406            0            0            0            0            0            0 
10020000    879.51748    44203.748    281.38877   -547.12871    428.60967   -118.51904    448.47626   -547.12871            0   -11.847175            0            0            0            0            0            0 
10021000    814.48252    44936.585    308.57689   -547.14673    470.02245   -77.124281     456.6501   -547.14673            0   -11.653968            0            0            0            0            0            0 
10022000    765.28187    42867.347    314.47934   -581.68538    479.01302   -102.67236    375.76372   -581.68538            0   -12.216514            0            0            0            0            0            0 
10023000    512.71088    46644.097    308.90767   -541.09052    470.52628   -70.564237    278.21058   -541.09052            0   -11.227349            0            0            0            0            0            0 
10024000    883.59173    43811.013    295.40838   -554.74725    449.96425     -104.783    459.77795   -554.74725            0   -11.953377            0            0            0            0            0            0 
10025000    740.18342    44126.224    308.21171    -564.4534    469.46621   -94.987193    381.34727    -564.4534            0   -11.867989            0            0            0            0            0            0 
10026000    690.80026    44398.408    297.53333   -561.47302    453.20097   -108.27205    339.02475   -561.47302            0   -11.795232            0            0            0            0            0            0 
10027000    605.05767    44795.847    311.24035      -561.25    474.07941   -87.170588    308.11448      -561.25            0   -11.690583            0            0            0            0            0            0 
10028000    653.51668    45162.993    295.86637   -550.54236    450.66186   -99.880492    330.56214   -550.54236            0   -11.595546            0            0            0            0            0            0 
10029000    651.06635    44034.736    297.72638   -570.83031    453.49502   -117.33529    300.78047   -570.83031            0   -11.892646            0            0            0            0            0            0 
10030000    743.00359    45329.353    300.13242   -542.39931    457.15989   -85.239429    405.94696   -542.39931            0    -11.55299            0            0            0            0            0            0 
10031000     743.1979    44227.159    280.72122   -553.36254    427.59286   -125.76969    353.59872   -553.36254            0   -11.840904            0            0            0            0            0            0 
10032000     591.3295    45536.597    312.37916   -551.63638    475.81404   -75.822335    316.88228   -551.63638            0    -11.50041            0            0            0            0            0            0 
10033000    631.44446    45671.445    293.96478   -544.95288    447.76537   -97.187512    323.39945   -544.95288            0   -11.466454            0            0            0            0            0            0 
10034000    709.37886    44574.688    304.24028   -556.76366    463.41695    -93.34671    367.80353   -556.76366            0   -11.748586            0            0            0            0            0            0 
10035000    752.21435    44454.403    310.91919   -554.77043    473.59023   -81.180198    406.49681   -554.77043            0   -11.780375            0            0            0            0            0            0 
10036000    671.09386     44335.65     276.2181   -557.16055    420.73374   -136.42681    297.49575   -557.16055            0   -11.811929            0            0            0            0            0            0 
10037000    634.13722    45209.949    291.18598   -556.52605    443.53271   -112.99334    305.11916   -556.52605            0   -11.583502            0            0            0            0            0            0 
10038000    692.25703    44508.034    304.04013   -564.65448    463.11208    -101.5424    347.80443   -564.65448            0    -11.76618            0            0            0            0            0            0 
10039000    785.77959    45035.387    320.68139   -551.07619    488.45995   -62.616235    453.47982   -551.07619            0   -11.628401            0            0            0            0            0            0 
10040000    676.74194    44875.394    308.42022    -556.0336    469.78381   -86.249784    356.65182    -556.0336            0   -11.669859            0            0            0            0            0            0 
10041000     792.4336    43825.832    300.83264   -557.92479    458.22645   -99.698344    406.78939   -557.92479            0   -11.949335            0            0            0            0            0            0 
10042000    584.46192     45822.72    296.88469   -549.51347    452.21296   -97.300505    293.28218   -549.51347            0     -11.4286            0            0            0            0            0            0 
10043000    800.57622    44070.268    291.12291   -553.30709    443.43665   -109.87045    404.67562   -553.30709            0   -11.883058            0            0            0            0            0            0 
10044000    791.96214    44330.858    302.03747   -557.06164    460.06165    -96.99999    415.01945   -557.06164            0   -11.813206            0            0            0            0            0            0 
10045000    618.25889    46462.273    300.93483   -537.00466     458.3821   -78.622559     340.3125   -537.00466            0   -11.271286            0            0            0            0            0            0 
10046000     770.2566    43991.156     314.0568   -563.64822    478.36941   -85.278816    408.89154   -563.64822            0   -11.904428            0            0            0            0            0            0 
10047000    502.18156    46581.376    291.52607   -542.72749    444.05074   -98.676744    242.47608   -542.72749            0   -11.242466            0            0            0            0            0            0 
10048000    511.05134    45173.105    297.71124   -570.19924    453.47195   -116.72729    219.95507   -570.19924            0    -11.59295            0            0            0            0            0            0 
10049000    739.44483    43473.348    316.95296     -575.559    482.78083   -92.778166    376.04035     -575.559            0   -12.046221            0            0            0            0            0            0 
10050000       684.44    43519.031    291.36196   -581.19054    443.80077   -137.38977     297.0109   -581.19054            0   -12.033576            0            0            0            0            0            0 
10051000    654.47347    44883.657    300.01335   -554.35917    456.97852   -97.380655    331.02596   -554.35917            0   -11.667711            0            0            0            0            0            0 
10052000    651.20406    43558.296    288.86466   -576.44515     439.9969   -136.44825    277.23113   -576.44515            0   -12.022728            0            0            0            0            0            0 
10053000    917.02516    43996.547    294.53771   -547.39207    448.63805   -98.754022    489.65014   -547.39207            0   -11.902969            0            0            0            0            0            0 
10054000    582.71106    44841.288    295.31808   -568.18726     449.8267   -118.36056    262.71161   -568.18726            0   -11.678736            0            0            0            0            0            0 
10055000     663.6942    43578.386    293.93907   -570.86337    447.72621   -123.13716    298.67108   -570.86337            0   -12.017185            0            0            0            0            0            0 
10056000    709.51395     44790.29    303.39902   -550.85388    462.13555   -88.718337    374.75068   -550.85388            0   -11.692033            0            0            0            0            0            0 
10057000    684.40201    45001.875    314.89396    -557.2531    479.64458   -77.608522    371.56876    -557.2531            0    -11.63706            0            0            0            0            0            0 
10058000    690.56929    45234.307    283.94838   -545.63683    432.50844   -113.12838     342.4374   -545.63683            0   -11.577265            0            0            0            0            0            0 
10059000    677.34831     43908.85    300.16119   -568.73189     457.2037   -111.52819    322.22232   -568.73189            0   -11.926742            0            0            0            0            0            0 
10060000     771.9548    45578.838    301.05814   -544.60533    458.56994   -86.035389    427.09887   -544.60533            0   -11.489752            0            0            0            0            0            0 
10061000    609.56154    44397.011    293.57796   -574.72028    447.17617   -127.54411    267.13776   -574.72028            0   -11.795604            0            0            0            0            0            0 
10062000    580.77901     46187.03    329.95698   -545.11392    502.58846    -42.52546    348.68174   -545.11392            0   -11.338455            0            0            0            0            0            0 
10063000    778.33044    43737.812    311.73558   -561.59674    474.83374   -86.762998    409.71151   -561.59674            0   -11.973382            0            0            0            0            0            0 
10064000    728.92839    44268.583    297.71983   -561.59268    453.48505   -108.10763     362.4972   -561.59268            0   -11.829824            0            0            0            0            0            0 
10065000    773.20564    44536.211    309.02094   -553.73775    470.69882    -83.03893    419.16969   -553.73775            0   -11.758736            0            0            0            0            0            0 
10066000    779.85529    42874.049    305.96893   -581.10375    466.05002   -115.05372    372.56953   -581.10375            0   -12.214604            0            0            0            0            0            0 
10067000    780.44703    43800.909    299.00485   -565.04593    455.44238   -109.60356    388.93925   -565.04593            0   -11.956134            0            0            0            0            0            0 
10068000    705.05711    45000.534    317.65787    -551.6144    483.85454   -67.759867    394.95969    -551.6144            0   -11.637407            0            0            0            0            0            0 
10069000    552.57581     44847.12    292.24538   -564.10625     445.1464   -118.95985    242.45193   -564.10625            0   -11.677217            0            0            0            0            0            0 
10070000     590.5345     44169.33    289.07237   -581.23151    440.31329   -140.91822    239.48307   -581.23151            0   -11.856407            0            0            0            0            0            0 
10071000    624.71182    45047.238    286.82411   -554.97891    436.88874   -118.09017    292.32536   -554.97891            0   -11.625342            0            0            0            0            0            0 
10072000    803.74492    44243.959    297.75042   -550.04529    453.53163   -96.513656    422.10497   -550.04529            0   -11.836408            0            0            0            0            0            0 
10073000    584.13865    44812.866    323.92936   -562.83756    493.40724   -69.430322    312.33331   -562.83756            0   -11.686143            0            0            0            0            0            0 
10074000    798.06269    45132.022    294.32251   -525.16541    448.31026   -76.855148    448.43311   -525.16541            0   -11.603503            0            0            0            0            0            0 
10075000    780.99723     44923.54    303.96495   -540.72822    462.99756   -77.730652    433.95043   -540.72822            0   -11.657353            0            0            0            0            0            0 
10076000    609.74807    43977.408    293.41326    -573.2829     446.9253    -126.3576    264.71371    -573.2829            0   -11.908149            0            0            0            0            0            0 
10077000    525.15445    44282.693    301.84227   -581.33294    459.76432   -121.56862    217.58539   -581.33294            0   -11.826055            0            0            0            0            0            0 
10078000    649.35021    44049.768     290.3895   -568.28211    442.31952   -125.96258    291.19342   -568.28211            0   -11.888588            0            0            0            0            0            0 
10079000    510.84034    46914.024    313.78955   -543.48597    477.96234   -65.523631    283.98971   -543.48597            0   -11.162751            0            0            0            0            0            0 
10080000    748.04085    44024.639    306.14979   -567.60869     466.3255   -101.28319    378.99959   -567.60869            0   -11.895374            0            0            0            0            0            0 
10081000     762.9176    43847.959    324.66089   -570.35725    494.52149   -75.835752     412.0329   -570.35725            0   -11.943305            0            0            0            0            0            0 
10082000    705.47641    43428.356     290.4468   -573.50017     442.4068   -131.09336    315.72579   -573.50017            0   -12.058701            0            0            0            0            0            0 
10083000    621.79192    44759.142    281.14559   -559.73909    428.23926   -131.49983     274.3849   -559.73909            0   -11.700169            0            0            0            0            0            0 
10084000    588.60176    44663.431     294.3283   -563.95162    448.31908   -115.63254    267.76518   -563.95162            0   -11.725242            0            0            0            0            0            0 
10085000    509.83616    45417.208    290.52277   -563.33868    442.52253   -120.81615    216.88065   -563.33868            0   -11.530642            0            0            0            0            0            0 
10086000    564.50662    44602.039    325.33604   -573.57381    495.54988   -78.023935     289.1735   -573.57381            0   -11.741381            0            0            0            0            0            0 
10087000    512.09002    44931.566    303.55713   -569.39075    462.37639   -107.01437    228.54839   -569.39075            0    -11.65527            0            0            0            0            0            0 
10088000    656.21118    44419.851    298.64212   -564.38123    454.88987   -109.49137    315.61402   -564.38123            0   -11.789539            0            0            0            0            0            0 
10089000    664.75767    43036.237     295.2648   -587.66868    449.74555   -137.92314    279.30495   -587.66868            0   -12.168572            0            0            0            0            0            0 
10090000    606.70623    45609.493    308.98635   -547.94202    470.64614   -77.295878    326.26549   -547.94202            0    -11.48203            0            0            0            0            0            0 
10091000    862.14199    43533.674    307.98084    -561.2827    469.11455   -92.168154    455.20061    -561.2827            0   -12.029528            0            0            0            0            0            0 
10092000    588.07385    45413.196    276.20512   -546.59037    420.71396   -125.87641    263.60777   -546.59037            0    -11.53166            0            0            0            0            0            0 
10093000     737.1232    44815.043    300.50274     -546.597    457.72395   -88.873049    392.89699     -546.597            0   -11.685575            0            0            0            0            0            0 
10094000    496.86289    44379.462    302.86482   -577.32095    461.32186   -115.99909    205.58494   -577.32095            0   -11.800268            0            0            0            0            0            0 
10095000    729.98729    45806.723     306.8424   -541.27293    467.38048    -73.89245    413.77123   -541.27293            0   -11.432591            0            0            0            0            0            0 
10096000    565.96812    44537.811    286.87601   -569.73651     436.9678   -132.76871    234.84925   -569.73651            0   -11.758314            0            0            0            0            0            0 
10097000     741.8845    46435.053    307.69785   -529.34692     468.6835   -60.663425    441.74641   -529.34692            0   -11.277893            0            0            0            0            0            0 
10098000    680.57374    43369.192    307.32808   -577.30934    468.12026   -109.18907    321.27054   -577.30934            0   -12.075151            0            0            0            0            0            0 
10099000    636.45544    43966.796    306.26714   -572.80393    466.50425   -106.29967    301.80232   -572.80393            0   -11.911024            0            0            0            0            0            0 
10100000    708.80824    45577.764    308.32128   -546.43728     469.6331    -76.80418    394.34416   -546.43728            0   -11.490023            0            0            0            0            0            0 
10101000    810.64093     44932.62    288.26134   -536.69732    439.07793   -97.619384    433.59051   -536.69732            0   -11.654997            0            0            0            0            0            0 
10102000    656.72854    45781.062    319.48652   -540.68558    486.63993    -54.04565    384.43219   -540.68558            0   -11.438999            0            0            0            0            0            0 
10103000    699.75682    43930.145    287.67061   -563.75813    438.17812      -125.58    322.73747   -563.75813            0   -11.920961            0            0            0            0            0            0 
10104000    744.31955     44140.22    301.93541   -556.60918    459.90619   -96.702992    382.44515   -556.60918            0   -11.864226            0            0            0            0            0            0 
10105000    718.48664    43366.014    311.07654   -578.15769    473.82991   -104.32778    350.07826   -578.15769            0   -12.076036            0            0            0            0            0            0 
10106000    792.58887    45120.194    305.42095   -537.08948    465.21534   -71.874139    449.67451   -537.08948            0   -11.606545            0            0            0            0            0            0 
10107000    499.20163    44354.621    314.30545   -584.22368    478.74816   -105.47552    217.44137   -584.22368            0   -11.806877            0            0            0            0            0            0 
10108000    573.11886    44084.503     273.6721   -572.28163    416.85568   -155.42594     213.0478   -572.28163            0   -11.879221            0            0            0            0            0            0 
10109000    642.26001    45918.802    307.11694   -541.47975    467.79866   -73.681092    356.42672   -541.47975            0   -11.404686            0            0            0            0            0            0 
10110000    772.32793    44962.046    299.50544    -546.3282    456.20486   -90.123333    416.31165    -546.3282            0   -11.647369            0            0            0            0            0            0 
10111000    652.99622    43545.169    318.78601   -580.80611    485.57292   -95.233192    319.45964   -580.80611            0   -12.026352            0            0            0            0            0            0 
10112000    792.07481    45305.993    313.88572   -540.91573    478.10883   -62.806901    460.54974   -540.91573            0   -11.558946            0            0            0            0            0            0 
10113000    873.91098    43729.299     340.3453   -562.15742     518.4119   -43.745518    513.58856   -562.15742            0   -11.975713            0            0            0            0            0            0 
10114000    725.19923    45163.749    313.20075   -549.22307    477.06548   -72.157591    405.50718   -549.22307            0   -11.595351            0            0            0            0            0            0 
10115000    775.78176    43904.267    274.85931   -562.06533    418.66404   -143.40129    353.33076   -562.06533            0   -11.927988            0            0            0            0            0            0 
10116000    830.20541    43118.209    297.39847   -570.06655    452.99554   -117.07101    404.99109   -570.06655            0   -12.145438            0            0            0            0            0            0 
10117000    515.25341    46381.485     289.3779   -544.74221    440.77866   -103.96355    244.56745   -544.74221            0   -11.290918            0            0            0            0            0            0 
10118000    883.11572    44425.392    304.74759   -536.66953    464.18969   -72.479844    499.68975   -536.66953            0   -11.788068            0            0            0            0            0            0 
10119000    825.68911    44849.951    316.22572   -541.22418     481.6731   -59.551076    480.52436   -541.22418            0    -11.67648            0            0            0            0            0            0 
10120000    766.62297    43967.919    302.83541   -567.53093    461.27705   -106.25388    385.32547   -567.53093            0   -11.910719            0            0            0            0            0            0 
10121000    578.28848    44897.233    304.79524   -567.29066    464.26226    -103.0284    275.62338   -567.29066            0   -11.664183            0            0            0            0            0            0 
10122000     754.0943    43909.464    306.16626   -563.32479    466.35058   -96.974207    385.92855   -563.32479            0   -11.926576            0            0            0            0            0            0 
10123000     588.9203    45856.376    299.39248   -551.60687    456.03282   -95.574054    298.27712   -551.60687            0   -11.420212            0            0            0            0            0            0 
10124000    719.55266    44431.086    309.54699   -561.46259     471.5001   -89.962488    376.29456   -561.46259            0   -11.786557            0            0            0            0            0            0 
10125000    787.19986    44866.241    296.73717   -548.38478    451.98826   -96.396519    418.69048   -548.38478            0    -11.67224            0            0            0            0            0            0 
10126000    687.28944    44066.795    294.09835   -566.61971    447.96883   -118.65089    323.04873   -566.61971            0   -11.883994            0            0            0            0            0            0 
10127000    594.51169    44499.106    268.49977   -567.37583    408.97722   -158.39861    227.42391   -567.37583            0   -11.768541            0            0            0            0            0            0 
10128000    760.29834    44662.377    297.12364   -555.73336    452.57693   -103.15644    392.06766   -555.73336            0   -11.725519            0            0            0            0            0            0 
10129000    674.43572     44283.09    302.76727   -563.77407    461.17327    -102.6008    332.96559   -563.77407            0   -11.825949            0            0            0            0            0            0 
10130000    807.26497    43608.627    303.18164   -565.22014    461.80444    -103.4157     409.9944   -565.22014            0   -12.008852            0            0            0            0            0            0 
10131000    688.10986    44191.126    306.25061   -565.72613    466.47907   -99.247059    344.22753   -565.72613            0   -11.850559            0            0            0            0            0            0 
10132000    599.94009    44159.843    304.53643   -572.02902    463.86805   -108.16098    278.21604   -572.02902            0   -11.858954            0            0            0            0            0            0 
10133000    623.20904     44802.73    295.90849   -564.56447    450.72601   -113.83846    293.36749   -564.56447            0   -11.688787            0            0            0            0            0            0 
10134000    625.86006    44543.791    293.69419   -566.30398     447.3532   -118.95078    287.62387   -566.30398            0   -11.756735            0            0            0            0            0            0 
10135000    871.91927    42630.282    298.48126   -576.47566    454.64485   -121.83082     420.2579   -576.47566            0    -12.28445            0            0            0            0            0            0 
10136000      547.672    44936.607    289.73921   -566.56001      441.329     -125.231    233.68821   -566.56001            0   -11.653963            0            0            0            0            0            0 
10137000    669.72887    44735.381     294.6564   -556.53409    448.81884   -107.71525    329.22902   -556.53409            0   -11.706384            0            0            0            0            0            0 
10138000    727.96045    44522.875    304.03903   -554.46362     463.1104   -91.353216    381.32641   -554.46362            0   -11.762258            0            0            0            0            0            0 
10139000    765.07936    43449.802    317.52041    -573.5901    483.64517   -89.944936    394.86351    -573.5901            0   -12.052749            0            0            0            0            0            0 
10140000    724.62722     43992.93    311.29371   -564.30436     474.1607   -90.143659     374.7712   -564.30436            0   -11.903948            0            0            0            0            0            0 
10141000    772.53145    45599.238    317.16392   -537.33121    483.10216   -54.229048    459.51835   -537.33121            0   -11.484612            0            0            0            0            0            0 
10142000    786.01961    44640.497    332.57677   -549.17556    506.57892   -42.596639     469.1303   -549.17556            0   -11.731266            0            0            0            0            0            0 
10143000    600.45414    45486.286    291.86601   -549.60622    444.56853   -105.03769    293.28607   -549.60622            0    -11.51313            0            0            0            0            0            0 
10144000    829.41173    42898.317     285.0926   -570.93143    434.25133    -136.6801    382.22306   -570.93143            0   -12.207694            0            0            0            0            0            0 
10145000    757.19395    45385.571    298.16854   -541.22043    454.16851   -87.051927    414.13626   -541.22043            0   -11.538679            0            0            0            0            0            0 
10146000    726.22275    43667.191    307.72765   -575.08553    468.72889   -106.35664    356.13192   -575.08553            0   -11.992746            0            0            0            0            0            0 
10147000    681.10958    45230.391     301.4277   -551.70577    459.13284   -92.572928    356.71342   -551.70577            0   -11.578267            0            0            0            0            0            0 
10148000    789.05215    43883.621    307.71334   -557.57438    468.70709   -88.867296    416.12418   -557.57438            0   -11.933599            0            0            0            0            0            0 
10149000    695.19887     44087.18    280.61477   -560.11556    427.43072   -132.68484     314.3046   -560.11556            0   -11.878499            0            0            0            0            0            0 
10150000    711.26772    45893.901    287.73965   -529.99404    438.28329   -91.710746    384.35175   -529.99404            0   -11.410874            0            0            0            0            0            0 
10151000    702.24004    44505.862    302.20975   -562.63354    460.32406   -102.30948    353.49512   -562.63354            0   -11.766754            0            0            0            0            0            0 
10152000     525.9955    45508.351    288.17371   -556.54136    438.94445   -117.59691    231.50242   -556.54136            0   -11.507548            0            0            0            0            0            0 
10153000    702.44565     44566.82    296.06784   -560.96353    450.96874   -109.99479    346.56773   -560.96353            0    -11.75066            0            0            0            0            0            0 
10154000    826.13743    44365.171     291.3039   -547.57667    443.71234   -103.86433    430.66353   -547.57667            0   -11.804069            0            0            0            0            0            0 
10155000    804.70578    44478.605    316.86129   -546.11311     482.6412    -63.47191    458.52047   -546.11311            0   -11.773965            0            0            0            0            0            0 
10156000    755.03717    44794.153    309.02756    -548.2143    470.70891   -77.505388    415.74286    -548.2143            0   -11.691025            0            0            0            0            0            0 
10157000    924.68575    42688.787    305.49049   -568.56004    465.32126   -103.23878    472.44484   -568.56004            0   -12.267614            0            0            0            0            0            0 
10158000    795.09294    44425.461    292.76894     -551.021    445.94388   -105.07712    410.06342     -551.021            0    -11.78805            0            0            0            0            0            0 
10159000    671.89778    44171.295     302.4051   -565.96156    460.62161   -105.33995    327.49192   -565.96156            0   -11.855879            0            0            0            0            0            0 
10160000    737.53921    43963.585    293.44247    -562.6849    446.96979   -115.71511    357.16832    -562.6849            0   -11.911894            0            0            0            0            0            0 
10161000    655.67995    44547.654     291.9719    -564.0602    444.72982   -119.33038    306.65298    -564.0602            0   -11.755715            0            0            0            0            0            0 
10162000    978.66458    41729.855    295.62996   -578.67766    450.30176   -128.37591    467.22677   -578.67766            0   -12.549517            0            0            0            0            0            0 
10163000    910.44955    43873.031    290.13116   -543.72278    441.92602   -101.79676    480.74815   -543.72278            0    -11.93648            0            0            0            0            0            0 
10164000    719.53466    43239.931    306.92241   -579.47273    467.50235   -111.97039     341.7754   -579.47273            0   -12.111248            0            0            0            0            0            0 
10165000    810.45334    45474.781    296.84704    -527.2616    452.15561   -75.105996    462.38913    -527.2616            0   -11.516043            0            0            0            0            0            0 
10166000    603.37505    44941.421    302.13342   -564.04967    460.20779   -103.84187    291.62494   -564.04967            0   -11.652714            0            0            0            0            0            0 
10167000    660.64832    45496.612    290.70352   -544.54556    442.79784   -101.74772     336.6066   -544.54556            0   -11.510517            0            0            0            0            0            0 
10168000     883.5265    43578.999    302.46929   -556.28889    460.71939   -95.569506    465.96018   -556.28889            0   -12.017016            0            0            0            0            0            0 
10169000    841.64603    43175.425     301.2882   -568.46714    458.92036   -109.54678    420.41188   -568.46714            0   -12.129343            0            0            0            0            0            0 
10170000    573.86473    46763.234    273.84475   -535.65947    417.11866    -118.5408    272.83138   -535.65947            0   -11.198745            0            0            0            0            0            0 
10171000    614.84579    44062.625    293.91457   -572.15643    447.68889   -124.46755     270.6374   -572.15643            0   -11.885119            0            0            0            0            0            0 
10172000    611.03841    44908.852    314.01132   -560.19196    478.30014   -81.891822     318.3075   -560.19196            0   -11.661165            0            0            0            0            0            0 
10173000    686.21227    44159.644    311.94024   -572.52598    475.14548   -97.380502    344.55606   -572.52598            0   -11.859007            0            0            0            0            0            0 
10174000    724.24288    45893.348    291.87578    -531.2962    444.58342   -86.712776    398.02835    -531.2962            0   -11.411012            0            0            0            0            0            0 
10175000    585.45857    44460.795    305.94941   -566.73905    466.02028   -100.71877     278.9014   -566.73905            0   -11.778682            0            0            0            0            0            0 
10176000    637.73255    45705.928    304.77905   -546.27864    464.23761   -82.041032    343.05495   -546.27864            0   -11.457804            0            0            0            0            0            0 
10177000    868.26397    43559.598    314.42186   -560.36997    478.92547   -81.444496    470.13935   -560.36997            0   -12.022369            0            0            0            0            0            0 
10178000    544.61705    46414.049    290.27883   -543.88096    442.15096      -101.73    266.92199   -543.88096            0   -11.282996            0            0            0            0            0            0 
10179000    659.84845    45498.466    282.06427   -545.26473    429.63859   -115.62614    322.21528   -545.26473            0   -11.510048            0            0            0            0            0            0 
10180000    595.83948    43878.812    305.81388   -581.58572    465.81384   -115.77188    265.52217   -581.58572            0   -11.934907            0            0            0            0            0            0 
10181000    802.18489    44295.283    303.69657   -552.90979    462.58877   -90.321021    427.89143   -552.90979            0   -11.822693            0            0            0            0            0            0 
10182000    661.09104    43663.046    288.05373   -572.00168     438.7617   -133.23998    287.73006   -572.00168            0   -11.993885            0            0            0            0            0            0 
10183000    564.46276    43863.394    289.04205   -578.27349     440.2671   -138.00639    223.08191   -578.27349            0   -11.939102            0            0            0            0            0            0 
10184000    628.90452    43850.154    295.88602   -574.30386    450.69178   -123.61208    278.57835   -574.30386            0   -11.942707            0            0            0            0            0            0 
10185000    657.27496    44339.717    299.53426   -565.31768    456.24877   -109.06892    315.95746   -565.31768            0   -11.810846            0            0            0            0            0            0 
10186000    645.56695    44291.208    303.17007   -568.19036    461.78681   -106.40355    310.59515   -568.19036            0   -11.823781            0            0            0            0            0            0 
10187000    687.72224    44759.074    286.64528   -557.05063    436.61635   -120.43428    328.48685   -557.05063            0   -11.700187            0            0            0            0            0            0 
10188000    705.11606    45118.764    300.16133   -549.95296    457.20392   -92.749035    371.22501   -549.95296            0   -11.606913            0            0            0            0            0            0 
10189000    727.45705    44510.358     312.9751   -561.26248    476.72177   -84.540711    387.67924   -561.26248            0   -11.765566            0            0            0            0            0            0 
10190000    825.38044    44067.963    305.87985   -561.74903    465.91433   -95.834698    434.62579   -561.74903            0   -11.883679            0            0            0            0            0            0 
10191000     598.5885     45854.07     296.3836   -546.51229     451.4497   -95.062584    305.23424   -546.51229            0   -11.420787            0            0            0            0            0            0 
10192000    667.77976    43113.397    302.13325   -592.58927    460.20753   -132.38174    287.49458   -592.58927            0   -12.146794            0            0            0            0            0            0 
10193000     606.1938    45948.967    292.97663   -547.34372    446.26023   -101.08349    305.13822   -547.34372            0     -11.3972            0            0            0            0            0            0 
10194000    761.58654    45153.355    299.31992   -544.74251    455.92228   -88.820227    412.69622   -544.74251            0   -11.598021            0            0            0            0            0            0 
10195000    621.91019    45613.334    301.37279   -544.41034     459.0492   -85.361141    328.34825   -544.41034            0   -11.481063            0            0            0            0            0            0 
10196000     749.8563    44629.845    311.24027   -557.13662    474.07929    -83.05733    405.00952   -557.13662            0   -11.734066            0            0            0            0            0            0 
10197000    698.04688     44345.25    300.96813   -565.04649    458.43284   -106.61366    344.83419   -565.04649            0   -11.809372            0            0            0            0            0            0 
10198000    734.20813    44959.287    295.88757   -555.19561    450.69415   -104.50146    376.90786   -555.19561            0   -11.648084            0            0            0            0            0            0 
10199000    871.91589    42355.884    289.49019   -581.63876     440.9497   -140.68906    397.90832   -581.63876            0   -12.364033            0            0            0            0            0            0 
10200000    610.07196    44619.872    314.55184   -568.68381    479.12345   -89.560356    307.43486   -568.68381            0   -11.736689            0            0            0            0            0            0 
10201000    675.88699    43358.976    297.55475   -577.25275    453.23359   -124.01916     303.3754   -577.25275            0   -12.077996            0            0            0            0            0            0 
10202000    552.11724    44749.794    288.52414   -570.34312    439.47822    -130.8649    229.46329   -570.34312            0   -11.702613            0            0            0            0            0            0 
10203000    677.85654    44761.027    300.35087   -560.99741    457.49263   -103.50478    338.99568   -560.99741            0   -11.699677            0            0            0            0            0            0 
10204000     555.5624    46265.919    301.54983   -544.12002    459.31887   -84.801149    290.05956   -544.12002            0   -11.319121            0            0            0            0            0            0 
10205000    760.42273    43733.757    296.65099   -571.45946    451.85699   -119.60248    365.40425   -571.45946            0   -11.974493            0            0            0            0            0            0 
10206000      695.874    46108.558    316.89059   -543.09457    482.68583   -60.408742    407.52896   -543.09457            0   -11.357752            0            0            0            0            0            0 
10207000    602.72384    45519.233    300.58144   -550.90006    457.84382   -93.056244    307.06278   -550.90006            0   -11.504797            0            0            0            0            0            0 
10208000    646.36068    45192.959    295.40285   -550.86439    449.95584   -100.90856    325.10321   -550.86439            0   -11.587857            0            0            0            0            0            0 
10209000    733.40383    42656.581    282.63389    -586.8139    430.50623   -156.30766    299.94468    -586.8139            0   -12.276876            0            0            0            0            0            0 
10210000    678.68484    44540.009    306.74141   -564.19163    467.22665   -96.964972    343.88857   -564.19163            0   -11.757733            0            0            0            0            0            0 
10211000    744.13995     44166.96    291.44901   -557.25366    443.93337   -113.32029    366.00243   -557.25366            0   -11.857043            0            0            0            0            0            0 
10212000     522.2311    45284.476    295.84539   -561.71828     450.6299   -111.08837    233.80747   -561.71828            0   -11.564439            0            0            0            0            0            0 
10213000    725.76291    43097.906    320.11532   -582.26283    487.59772   -94.665115      361.505   -582.26283            0    -12.15116            0            0            0            0            0            0 
10214000     676.3833    45326.119    304.83001   -550.96002    464.31522   -86.644799    360.46821   -550.96002            0   -11.553814            0            0            0            0            0            0 
10215000    801.83228    44521.268    299.37537   -552.41587    456.00675   -96.409111     424.2182   -552.41587            0   -11.762683            0            0            0            0            0            0 
10216000    580.93074    43426.557    312.36151   -593.07765    475.78716   -117.29049    250.63142   -593.07765            0     -12.0592            0            0            0            0            0            0 
10217000     662.5621    44991.385    293.87094   -556.83169    447.62243   -109.20926    325.53298   -556.83169            0   -11.639774            0            0            0            0            0            0 
10218000    616.91769    45865.072    302.34632   -544.33996    460.53208   -83.807874     328.8453   -544.33996            0   -11.418047            0            0            0            0            0            0 
10219000    710.80132    45173.926    318.24667   -554.60255     484.7514   -69.851148     398.4357   -554.60255            0   -11.592739            0            0            0            0            0            0 
10220000    663.26262    45989.988    305.73479   -542.15676    465.69338   -76.463383      368.398   -542.15676            0   -11.387034            0            0            0            0            0            0 
10221000    667.49905    46876.124    299.68053   -521.69254    456.47156   -65.220982    391.10819   -521.69254            0   -11.171776            0            0            0            0            0            0 
10222000     628.9788    45192.659    282.67218   -553.96934    430.56455   -123.40479    291.14795   -553.96934            0   -11.587934            0            0            0            0            0            0 
10223000    774.26799    43274.363    271.02495   -566.41951    412.82355   -153.59596    335.05402   -566.41951            0   -12.101612            0            0            0            0            0            0 
10224000    618.29511    45180.107    301.14954   -548.55862    458.70916   -89.849466     317.5486   -548.55862            0   -11.591153            0            0            0            0            0            0 
10225000    709.47378    44280.496    291.40669   -562.50295     443.8689   -118.63405    339.53392   -562.50295            0   -11.826641            0            0            0            0            0            0 
10226000    654.15686    45091.019    290.82588   -552.25408    442.98422   -109.26987    320.90778   -552.25408            0   -11.614054            0            0            0            0            0            0 
10227000    631.33755    44696.638    311.81518   -575.44671    474.95498   -100.49173    311.04857   -575.44671            0   -11.716531            0            0            0            0            0            0 
10228000    809.38247    42959.954    288.39255   -572.29351    439.27779   -133.01572    374.08414   -572.29351            0   -12.190179            0            0            0            0            0            0 
10229000     624.7511    45696.979    283.66762   -549.83595     432.0808   -117.75516    298.60619   -549.83595            0   -11.460048            0            0            0            0            0            0 
10230000    726.63976    43885.512    314.83926   -571.92378    479.56125   -92.362525    372.70522   -571.92378            0   -11.933085            0            0            0            0            0            0 
10231000    553.78554    44818.344    288.93484   -570.40987     440.1038   -130.30607    231.66454   -570.40987            0   -11.684714            0            0            0            0            0            0 
10232000    492.31583    45354.645    305.24318   -565.63585    464.94456   -100.69129    224.95149   -565.63585            0   -11.546547            0            0            0            0            0            0 
10233000    655.36315    45640.589    291.45912   -540.38909    443.94876   -96.440331    339.78326   -540.38909            0   -11.474207            0            0            0            0            0            0 
10234000    622.96142    44345.505    293.93445   -572.97182    447.71917   -125.25265    277.63749   -572.97182            0   -11.809304            0            0            0            0            0            0 
10235000    610.18626    44750.791    290.71748   -561.12388     442.8191   -118.30478    279.92985   -561.12388            0   -11.702353            0            0            0            0            0            0 
10236000    724.23305    44268.638    300.33117   -563.12002    457.46261   -105.65741    361.91664   -563.12002            0   -11.829809            0            0            0            0            0            0 
10237000    781.58539    44658.401     306.8006    -544.5073    467.31681   -77.190482    431.85372    -544.5073            0   -11.726563            0            0            0            0            0            0 
10238000    776.99921    44827.138    317.28006   -548.71874    483.27906   -65.439681    442.52963   -548.71874            0   -11.682422            0            0            0            0            0            0 
10239000    710.44121    45156.726    312.14276   -554.11703    475.45396   -78.663072    389.20831   -554.11703            0   -11.597155            0            0            0            0            0            0 
10240000    623.86039    44977.837    300.08302   -565.36006    457.08463   -108.27543     300.9493   -565.36006            0    -11.64328            0            0            0            0            0            0 
10241000    669.72327     43257.42    311.09987   -581.22786    473.86544   -107.36242    315.14261   -581.22786            0   -12.106352            0            0            0            0            0            0 
10242000     616.8707    44915.525    301.09031   -557.32248    458.61893   -98.703547    305.37566   -557.32248            0   -11.659433            0            0            0            0            0            0 
10243000    658.32326    44391.766    302.83417   -568.94088    461.27517   -107.66571    318.53828   -568.94088            0   -11.796997            0            0            0            0            0            0 
10244000      810.986     43203.79    308.48544   -575.24887    469.88315   -105.36572    405.62274   -575.24887            0    -12.12138            0            0            0            0            0            0 
10245000    729.95112    45880.937    292.48225   -533.46543    445.50719   -87.958239    400.47133   -533.46543            0   -11.414099            0            0            0            0            0            0 
10246000    875.96607    44227.457    281.52458    -541.2195    428.81653   -112.40297    452.60574    -541.2195            0   -11.840824            0            0            0            0            0            0 
10247000    641.66677    45809.142    289.12712   -543.04447    440.39668   -102.64779    326.03653   -543.04447            0   -11.431988            0            0            0            0            0            0 
10248000    590.52207    44540.028    307.75728    -575.1835    468.77403   -106.40947    277.17632    -575.1835            0   -11.757728            0            0            0            0            0            0 
10249000    590.05202     45243.22    299.28166   -561.32957    455.86402   -105.46555    283.86609   -561.32957            0   -11.574984            0            0            0            0            0            0 
10250000    631.47901    45950.743    295.22028   -543.00502    449.67774   -93.327279    329.85488   -543.00502            0   -11.396759            0            0            0            0            0            0 
10251000    820.00102    43623.906    301.85904   -565.51571    459.78986   -105.72585    415.96693   -565.51571            0   -12.004646            0            0            0            0            0            0 
10252000     767.5954    45072.161    309.52792   -543.87397    471.47105   -72.402924    432.16151   -543.87397            0   -11.618914            0            0            0            0            0            0 
10253000     567.7744    43875.524     278.8515   -573.63103    424.74491   -148.88611     214.4211   -573.63103            0   -11.935802            0            0            0            0            0            0 
10254000    664.08366    45529.442    304.11735   -545.19101    463.22971   -81.961299     358.9904   -545.19101            0   -11.502217            0            0            0            0            0            0 
10255000    719.93998    43937.491    300.71592   -565.20223    458.04866   -107.15357     354.1719   -565.20223            0   -11.918968            0            0            0            0            0            0 
10256000    643.08161    44494.367    287.64422   -564.53782    438.13793   -126.39988     290.8988   -564.53782            0   -11.769794            0            0            0            0            0            0 
10257000    630.73335    43427.142    294.64297   -585.50948    448.79838    -136.7111    262.75776   -585.50948            0   -12.059038            0            0            0            0            0            0 
10258000    659.86495    46597.415    311.89577   -525.91609    475.07774   -50.838343    397.58971   -525.91609            0   -11.238596            0            0            0            0            0            0 
10259000    568.44518    44853.895    290.38595   -563.57152    442.31412   -121.25741     250.5899   -563.57152            0   -11.675453            0            0            0            0            0            0 
10260000    612.80045    43805.281    288.88932   -574.45764    440.03446   -134.42318     257.0675   -574.45764            0   -11.954941            0            0            0            0            0            0 
10261000    796.60659    44591.755     303.7473   -541.39463    462.66604   -78.728584     439.3246   -541.39463            0   -11.744089            0            0            0            0            0            0 
10262000    867.10453    45198.378    303.41304    -538.3718     462.1569   -76.214898    495.35612    -538.3718            0   -11.586468            0            0            0            0            0            0 
10263000    704.75851    43707.081     308.3966   -574.73333    469.74783    -104.9855    344.24375   -574.73333            0   -11.981801            0            0            0            0            0            0 
10264000    924.89667    42756.969    318.56005   -569.49138    485.22873   -84.262647    492.47197   -569.49138            0   -12.248051            0            0            0            0            0            0 
10265000    621.95881    46337.323     299.9365   -537.73517    456.86145   -80.873714    339.43506   -537.73517            0   -11.301679            0            0            0            0            0            0 
10266000     759.8667    43204.555    308.19931   -579.99894    469.44733   -110.55161    368.23593   -579.99894            0   -12.121165            0            0            0            0            0            0 
10267000    704.16499    44784.888    310.34621    -556.2199    472.71746   -83.502437    376.41704    -556.2199            0   -11.693443            0            0            0            0            0            0 
10268000    735.55982    44060.581    296.62531   -560.28422    451.81787   -108.46635    364.18849   -560.28422            0    -11.88567            0            0            0            0            0            0 
10269000    725.04511    44667.983    290.04531   -551.38174    441.79526   -109.58648    362.73453   -551.38174            0   -11.724047            0            0            0            0            0            0 
10270000    580.85824    44718.023    300.04877   -567.13648    457.03246   -110.10402    268.71226   -567.13648            0   -11.710928            0            0            0            0            0            0 
10271000    634.98556    45676.596    300.63264   -543.08396    457.92182   -85.162148    337.83114   -543.08396            0   -11.465161            0            0            0            0            0            0 
10272000     699.8121     44919.48    305.38239    -547.1283     465.1566   -81.971693    376.47838    -547.1283            0   -11.658406            0            0            0            0            0            0 
10273000    582.47869    44715.022    299.24845   -566.80014    455.81343   -110.98671    268.86088   -566.80014            0   -11.711714            0            0            0            0            0            0 
10274000    744.21645    44304.785    290.52421   -554.01532    442.52471   -111.49061    369.37729   -554.01532            0   -11.820158            0            0            0            0            0            0 
10275000    799.03084    44823.124    307.26399   -551.01504    468.02265   -82.992394    439.33349   -551.01504            0   -11.683468            0            0            0            0            0            0 
10276000    684.32547    45135.602     306.6616   -550.64127    467.10508   -83.536192    366.92547   -550.64127            0   -11.602582            0            0            0            0            0            0 
10277000    784.14778    42585.747    318.50926   -585.85851    485.15137   -100.70714    386.30307   -585.85851            0   -12.297296            0            0            0            0            0            0 
10278000    708.12377    44308.786    296.04562   -566.22368     450.9349   -115.28878    342.29953   -566.22368            0    -11.81909            0            0            0            0            0            0 
10279000    768.80545     44685.47    303.11846   -553.78084    461.70819   -92.072644    408.95152   -553.78084            0   -11.719459            0            0            0            0            0            0 
10280000     850.7474    42563.507    285.15708   -575.25179    434.34954   -140.90226    387.19501   -575.25179            0   -12.303722            0            0            0            0            0            0 
10281000    673.08975    44912.183    293.20514   -552.63555     446.6083   -106.02725    334.84527   -552.63555            0     -11.6603            0            0            0            0            0            0 
10282000    664.42451    45037.456    303.48278   -560.02088    462.26313   -97.757751    338.65295   -560.02088            0   -11.627867            0            0            0            0            0            0 
10283000    776.69854     44128.58    308.48884   -558.73572    469.88833   -88.847391    411.01254   -558.73572            0   -11.867355            0            0            0            0            0            0 
10284000    585.50654    46100.656    308.95447   -541.17457    470.59758   -70.576992    323.07708   -541.17457            0   -11.359698            0            0            0            0            0            0 
10285000    704.17701    43849.127    303.50088    -570.6991     462.2907   -108.40839    341.90895    -570.6991            0   -11.942987            0            0            0            0            0            0 
10286000    888.49265    43549.339    313.53305   -557.24628    477.57164   -79.674641    484.62697   -557.24628            0   -12.025201            0            0            0            0            0            0 
10287000    697.21229    43824.905    301.59565   -568.96519    459.38866   -109.57652    336.04064   -568.96519            0   -11.949588            0            0            0            0            0            0 
10288000    764.77822    43979.376      302.154   -557.83392    460.23915   -97.594773    392.92946   -557.83392            0   -11.907616            0            0            0            0            0            0 
10289000    762.59389    44574.358    323.10215   -558.39181    492.14723   -66.244581    429.49582   -558.39181            0   -11.748673            0            0            0            0            0            0 
10290000    727.88654     44186.01    304.50437   -560.67639    463.81922   -96.857169    372.19848   -560.67639            0   -11.851931            0            0            0            0            0            0 
10291000    629.97565    45038.632    304.40108   -556.38083    463.66189   -92.718948    321.07568   -556.38083            0   -11.627563            0            0            0            0            0            0 
10292000    767.94009    44303.927    293.54657   -560.14387    447.12835   -113.01552    383.17157   -560.14387            0   -11.820387            0            0            0            0            0            0 
10293000    814.23756    43539.599    286.28423    -565.2893     436.0664    -129.2229    387.80198    -565.2893            0   -12.027891            0            0            0            0            0            0 
10294000    777.54934    43009.931    308.37532   -580.43841    469.71541   -110.72299    376.99928   -580.43841            0   -12.176014            0            0            0            0            0            0 
10295000    569.56969    44298.538    304.27444   -578.10415    463.46898   -114.63517    253.33461   -578.10415            0   -11.821825            0            0            0            0            0            0 
10296000    699.70924    45808.471    286.35131   -533.75294    436.16858    -97.58436    369.87009   -533.75294            0   -11.432155            0            0            0            0            0            0 
10297000    779.87318     44072.92    294.69724   -555.49266    448.88105   -106.61162    394.65837   -555.49266            0   -11.882343            0            0            0            0            0            0 
10298000    737.18949    43963.301    299.48933   -566.80745    456.18034   -110.62711    362.02905   -566.80745            0    -11.91197            0            0            0            0            0            0 
10299000    642.46613    44306.806    300.08799   -570.71423    457.09221   -113.62203    301.51987   -570.71423            0   -11.819619            0            0            0            0            0            0 
10300000    746.78929    43419.836    308.66564   -567.30918    470.15763   -97.151551    375.74064   -567.30918            0   -12.061067            0            0            0            0            0            0 
10301000      784.844    44599.529    307.45399   -549.72254    468.31206   -81.410486    429.08217   -549.72254            0   -11.742042            0            0            0            0            0            0 
10302000    760.10983    44670.261    302.65791   -547.74237     461.0067   -86.735671    408.45303   -547.74237            0   -11.723449            0            0            0            0            0            0 
10303000    690.94383    45159.944    317.96675   -546.98748    484.32503   -62.662454    392.40108   -546.98748            0   -11.596328            0            0            0            0            0            0 
10304000    711.47008    44569.696    299.38314   -559.05205    456.01858   -103.03347    359.42444   -559.05205            0   -11.749902            0            0            0            0            0            0 
10305000    635.98342    45917.172    308.25096   -542.60794    469.52599   -73.081956    352.80743   -542.60794            0   -11.405091            0            0            0            0            0            0 
10306000    776.05016    43719.718    303.68029   -571.06605    462.56397   -108.50208    386.31312   -571.06605            0   -11.978338            0            0            0            0            0            0 
10307000    746.28682    44245.204    292.15254   -561.99917    445.00498    -116.9942    364.56298   -561.99917            0   -11.836075            0            0            0            0            0            0 
10308000    725.21696    43629.704    293.86912   -575.33084    447.61966   -127.71118    333.74037   -575.33084            0   -12.003051            0            0            0            0            0            0 
10309000    677.55124    45383.596    312.93756   -539.90536    476.66459   -63.240763    385.21224   -539.90536            0   -11.539181            0            0            0            0            0            0 
10310000    797.04356      45081.3    314.00894    -534.3832    478.29652   -56.086681    467.94118    -534.3832            0   -11.616558            0            0            0            0            0            0 
10311000    651.79143    44844.828    310.33689   -562.19425    472.70327   -89.490973    336.79093   -562.19425            0   -11.677814            0            0            0            0            0            0 
10312000    717.73242    44561.588    310.32572   -557.49115    472.68625   -84.804902    381.63867   -557.49115            0   -11.752039            0            0            0            0            0            0 
10313000    688.21023     44616.33    308.56148   -558.72409    469.99898   -88.725113    359.08187   -558.72409            0    -11.73762            0            0            0            0            0            0 
10314000    707.10212    45568.114     297.2944   -541.55015    452.83702   -88.713122    381.20164   -541.55015            0   -11.492456            0            0            0            0            0            0 
10315000    540.63281    45955.354    294.57585   -547.76464    448.69615   -99.068487    263.26995   -547.76464            0   -11.395615            0            0            0            0            0            0 
10316000    667.33076    43712.243    318.26866   -577.33635     484.7849   -92.551457    332.87072   -577.33635            0   -11.980386            0            0            0            0            0            0 
10317000     572.1043    45353.148    294.34045   -557.49875    448.33759   -109.16116    269.24529   -557.49875            0   -11.546928            0            0            0            0            0            0 
10318000    609.09097    46124.252    292.34938   -542.79389     445.3048   -97.489086    312.23112   -542.79389            0   -11.353887            0            0            0            0            0            0 
10319000    762.37889    44276.449    293.20031   -552.67475    446.60094    -106.0738    386.21452   -552.67475            0   -11.827722            0            0            0            0            0            0 
10320000    746.97513    43008.343    296.12985   -577.55706    451.06319   -126.49387    342.03326   -577.55706            0   -12.176464            0            0            0            0            0            0 
10321000    579.07373      44310.3    278.34271   -566.60303    423.96993   -142.63311    231.57608   -566.60303            0   -11.818686            0            0            0            0            0            0 
10322000    819.21066    44468.254    305.51314   -544.91881    465.35577   -79.563044    451.71463   -544.91881            0   -11.776706            0            0            0            0            0            0 
10323000    878.12385    43703.542    308.44353   -551.97849    469.81932   -82.159175    477.53179   -551.97849            0   -11.982771            0            0            0            0            0            0 
10324000    563.51031    44602.062    283.81732   -565.68704    432.30883   -133.37821    233.17134   -565.68704            0   -11.741375            0            0            0            0            0            0 
10325000    652.69866    44825.906    308.28823   -552.62242    469.58277   -83.039654    343.65547   -552.62242            0   -11.682743            0            0            0            0            0            0 
10326000     651.7722    45425.945    309.60571   -554.26273    471.58954   -82.673192     349.1199   -554.26273            0   -11.528424            0            0            0            0            0            0 
10327000    715.43281    44957.661    312.75696   -553.67942     476.3895   -77.289921    391.79174   -553.67942            0   -11.648505            0            0            0            0            0            0 
10328000    620.67306    44141.596    306.20036   -564.35552    466.40254   -97.952988    301.61144   -564.35552            0   -11.863856            0            0            0            0            0            0 
10329000    774.42843    44359.718    293.36767   -547.46568    446.85585   -100.60983    400.39966   -547.46568            0    -11.80552            0            0            0            0            0            0 
10330000    740.32608    45053.383    304.06549   -549.32906    463.15071   -86.178355    400.25836   -549.32906            0   -11.623756            0            0            0            0            0            0 
10331000    693.92231    44964.141    310.97978   -557.80665    473.68251   -84.124137    370.91949   -557.80665            0   -11.646826            0            0            0            0            0            0 
10332000    728.18571    45708.906    327.03591   -539.12216    498.13912   -40.983039     444.4383   -539.12216            0   -11.457057            0            0            0            0            0            0 
10333000     680.0029    44150.626    305.12134   -568.72349    464.75898   -103.96451    333.88364   -568.72349            0    -11.86143            0            0            0            0            0            0 
10334000    620.52176    45153.117    299.94057   -551.27162    456.86766   -94.403957      314.217   -551.27162            0   -11.598082            0            0            0            0            0            0 
10335000    728.94678     43202.83    298.72284   -575.92241    455.01282   -120.90959    338.37715   -575.92241            0   -12.121649            0            0            0            0            0            0 
10336000    768.39277    43776.031    302.56364   -564.45715     460.8631   -103.59404     386.9698   -564.45715            0   -11.962929            0            0            0            0            0            0 
10337000    736.53544    45557.295    318.54159   -544.95447    485.20063   -59.753849    429.60503   -544.95447            0   -11.495185            0            0            0            0            0            0 
10338000    758.88155    43750.601    299.70344   -557.99187    456.50647    -101.4854    382.72477   -557.99187            0   -11.969882            0            0            0            0            0            0 
10339000    675.00942    46098.729    307.25602   -530.72219    468.01051   -62.711679    391.09897   -530.72219            0   -11.360173            0            0            0            0            0            0 
10340000    615.88433    43485.505    296.29866     -585.225    451.32032   -133.90468    256.68392     -585.225            0   -12.042853            0            0            0            0            0            0 
10341000    572.73411    45003.716    281.40686   -560.20873    428.63722   -131.57151    244.33281   -560.20873            0   -11.636584            0            0            0            0            0            0 
10342000     616.7071    42941.546    291.69595   -591.46791    444.30951    -147.1584     239.0596   -591.46791            0   -12.195405            0            0            0            0            0            0 
10343000    693.64116    45704.923    288.15111   -544.29202    438.91002   -105.38199    356.97105   -544.29202            0   -11.458056            0            0            0            0            0            0 
10344000    910.63605    42455.786    293.41039   -573.42119    446.92092   -126.50027    437.34198   -573.42119            0   -12.334939            0            0            0            0            0            0 
10345000    646.03183    44692.337    326.49339   -569.56146    497.31275    -72.24871    348.82959   -569.56146            0   -11.717659            0            0            0            0            0            0 
10346000     518.7676    45815.873    300.12518   -557.66749    457.14886   -100.51862    246.11022   -557.66749            0   -11.430308            0            0            0            0            0            0 
10347000      794.724    43172.596    306.27346   -571.64806    466.51387   -105.13419    395.24631   -571.64806            0   -12.130138            0            0            0            0            0            0 
10348000    701.83853    43208.545    294.06499    -576.9864    447.91802   -129.06839    313.19678    -576.9864            0   -12.120046            0            0            0            0            0            0 
10349000    666.82254    46970.543    313.68648   -532.65887    477.80534   -54.853525    401.93138   -532.65887            0   -11.149318            0            0            0            0            0            0 
10350000    644.83961    44730.152    300.08687   -550.72549    457.09051   -93.634988    327.02186   -550.72549            0   -11.707753            0            0            0            0            0            0 
10351000    682.48417    45472.401    306.89795   -546.58951     467.4651    -79.12441    373.47747   -546.58951            0   -11.516646            0            0            0            0            0            0 
10352000    713.75201    44265.923    301.53981   -565.41221    459.30361   -106.10861    354.67048   -565.41221            0   -11.830535            0            0            0            0            0            0 
10353000    869.28104    44058.776    320.90999    -554.2348    488.80815   -65.426653    493.13166    -554.2348            0   -11.886157            0            0            0            0            0            0 
[...]
14939000    568.11014     47204.47    306.19095   -534.94873     466.3882   -68.560537    322.54283   -534.94873            0   -11.094067            0            0            0            0            0            0 
14940000    725.22981    43303.857    291.81353   -575.10001    444.48859   -130.61141    327.40191   -575.10001            0    -12.09337            0            0            0            0            0            0 
14941000    836.03199     43991.91    320.48144   -554.44507    488.15538   -66.289687    470.08911   -554.44507            0   -11.904224            0            0            0            0            0            0 
14942000    749.99977    44449.668    317.91308   -564.53369    484.24328    -80.29041    405.89906   -564.53369            0    -11.78163            0            0            0            0            0            0 
14943000    682.35678    44117.895    298.60071   -561.82316     454.8268   -106.99636    332.04171   -561.82316            0    -11.87023            0            0            0            0            0            0 
14944000    596.21604    45082.445    298.11668   -560.63839    454.08952   -106.54887    285.45198   -560.63839            0   -11.616263            0            0            0            0            0            0 
14945000     667.8196     45429.33    309.66655   -552.01796    471.68222   -80.335743    362.12157   -552.01796            0   -11.527565            0            0            0            0            0            0 
14946000    601.72186    43839.543    293.41885   -575.60482    446.93381     -128.671    256.04274   -575.60482            0   -11.945598            0            0            0            0            0            0 
14947000    633.77903      45037.6    322.23461   -563.74881     490.8258   -72.923013     343.3603   -563.74881            0    -11.62783            0            0            0            0            0            0 
14948000    747.68535    43416.121    282.75407   -571.22967    430.68929   -140.54039    332.87872   -571.22967            0   -12.062099            0            0            0            0            0            0 
14949000    613.14071    45125.787    282.73596   -550.33234     430.6617   -119.67064    283.84543   -550.33234            0   -11.605106            0            0            0            0            0            0 
14950000    552.03234    46075.709    297.84447    -549.3884    453.67489   -95.713508    275.23398    -549.3884            0   -11.365849            0            0            0            0            0            0 
14951000    646.16579    44382.783    306.14824   -563.46327    466.32314   -97.140135    321.10836   -563.46327            0   -11.799385            0            0            0            0            0            0 
14952000    827.75467    44105.208    312.52863   -551.17124    476.04171   -75.129528    457.30646   -551.17124            0   -11.873644            0            0            0            0            0            0 
14953000    752.66787    43778.878    308.26218   -570.88256    469.54309   -101.33947     379.2164   -570.88256            0   -11.962151            0            0            0            0            0            0 
14954000    717.38511    45440.366     294.1859   -539.32864    448.10218    -91.22646    384.18546   -539.32864            0   -11.524765            0            0            0            0            0            0 
14955000    774.11079    43405.743    295.07103   -571.83835    449.45041   -122.38795    367.64605   -571.83835            0   -12.064983            0            0            0            0            0            0 
14956000    639.10251    44607.452     281.3365   -564.53049    428.53006   -136.00044    279.77021   -564.53049            0   -11.739956            0            0            0            0            0            0 
14957000    579.89976    43960.505    292.55989   -575.39598    445.62545   -129.77054    242.01415   -575.39598            0   -11.912728            0            0            0            0            0            0 
14958000     691.6682    45356.988    306.72106   -551.90084    467.19566   -84.705185    372.82306   -551.90084            0   -11.545951            0            0            0            0            0            0 
14959000    774.10787    42299.353    295.31253   -595.56059    449.81826   -145.74233    331.79915   -595.56059            0   -12.380557            0            0            0            0            0            0 
14960000     612.4528    44328.229    296.03132   -568.62704    450.91311   -117.71393    278.22562   -568.62704            0   -11.813906            0            0            0            0            0            0 
14961000    725.97747    42935.206    302.41964   -585.38169    460.64376   -124.73793    329.84443   -585.38169            0   -12.197206            0            0            0            0            0            0 
14962000    603.88161    43897.979     304.4559   -579.06573    463.74538   -115.32034    271.28889   -579.06573            0   -11.929696            0            0            0            0            0            0 
14963000    601.54299    44619.318    308.81844   -563.69815    470.39038   -93.307772    298.13248   -563.69815            0   -11.736834            0            0            0            0            0            0 
14964000     829.4766    44627.015    302.67996    -543.3367    461.04027   -82.296428    457.55949    -543.3367            0    -11.73481            0            0            0            0            0            0 
14965000    645.99206    46309.099    302.49054   -533.67805    460.75175   -72.926294    363.35782   -533.67805            0   -11.308567            0            0            0            0            0            0 
14966000    632.13056    44966.379     285.0961   -554.07931    434.25665   -119.82266     294.7213   -554.07931            0   -11.646247            0            0            0            0            0            0 
14967000    755.05327    43936.505     286.2658   -563.28351    436.03832   -127.24519    356.56943   -563.28351            0   -11.919235            0            0            0            0            0            0 
14968000    649.87141    44547.552    292.96116   -560.84509    446.23667   -114.60843    307.60027   -560.84509            0   -11.755742            0            0            0            0            0            0 
14969000    670.23557    43738.198     294.7343   -573.04388    448.93749   -124.10639     303.4213   -573.04388            0   -11.973277            0            0            0            0            0            0 
14970000    697.32421    44809.921    274.77196   -544.75378    418.53098   -126.22279    329.48327   -544.75378            0   -11.686911            0            0            0            0            0            0 
14971000    675.41421    42845.155     293.9122   -585.89295    447.68528   -138.20767    283.82668   -585.89295            0   -12.222842            0            0            0            0            0            0 
14972000     658.7523     45510.24    305.82174   -545.75699    465.82582   -79.931174    357.29602   -545.75699            0    -11.50707            0            0            0            0            0            0 
14973000     704.3087    43851.177    295.29358   -574.89643    449.78939   -125.10704    325.31559   -574.89643            0   -11.942428            0            0            0            0            0            0 
14974000    554.72143    45337.729    285.65446   -558.88909    435.10714   -123.78196    243.00222   -558.88909            0   -11.550855            0            0            0            0            0            0 
14975000    794.38411    43691.033    299.89054   -561.04673    456.79144   -104.25529    401.91746   -561.04673            0   -11.986202            0            0            0            0            0            0 
14976000    578.25728    45811.225    304.18173    -551.0713    463.32777   -87.743529    298.59578    -551.0713            0   -11.431468            0            0            0            0            0            0 
14977000    616.85552    43802.169    286.32798   -574.32076    436.13304   -138.18772    255.86558   -574.32076            0    -11.95579            0            0            0            0            0            0 
14978000    612.47018    46208.711    304.08288   -539.42291     463.1772   -76.245713    336.50202   -539.42291            0   -11.333135            0            0            0            0            0            0 
14979000    637.25564    44363.252    291.39256   -569.46464    443.84739   -125.61725    286.68238   -569.46464            0    -11.80458            0            0            0            0            0            0 
14980000    692.15837    43096.977     295.1528   -587.78467    449.57495   -138.20972    296.82927   -587.78467            0   -12.151422            0            0            0            0            0            0 
14981000    778.08173    45368.292    304.78349   -540.29898    464.24437   -76.054608    438.76317   -540.29898            0   -11.543074            0            0            0            0            0            0 
14982000    871.74175    43399.012    283.79014   -558.54816    432.26741   -126.28075    425.47082   -558.54816            0   -12.066854            0            0            0            0            0            0 
14983000    620.76023    44697.307    293.08837   -563.09924    446.43044   -116.66881    287.98267   -563.09924            0   -11.716356            0            0            0            0            0            0 
14984000    662.18403    43477.347    297.93357   -576.54309    453.81061   -122.73248    297.14021   -576.54309            0   -12.045113            0            0            0            0            0            0 
14985000    680.26664     45946.01    311.89167   -540.81138    475.07151   -65.739871    390.09009   -540.81138            0   -11.397933            0            0            0            0            0            0 
14986000    723.51482    45012.712    291.29415   -548.84738    443.69748    -105.1499    369.81169   -548.84738            0   -11.634259            0            0            0            0            0            0 
14987000    653.13723    45041.026    295.37394   -552.72999    449.91179    -102.8182    326.21274   -552.72999            0   -11.626945            0            0            0            0            0            0 
14988000    806.61817    44428.573     296.9064   -551.64884    452.24602   -99.402823    423.24152   -551.64884            0   -11.787224            0            0            0            0            0            0 
14989000    739.99449    44976.101    300.53697   -548.58672    457.77609   -90.810624    394.57418   -548.58672            0   -11.643729            0            0            0            0            0            0 
14990000    723.19185    45977.173    319.37263   -538.59318    486.46645   -52.126729    432.79504   -538.59318            0   -11.390208            0            0            0            0            0            0 
14991000    642.88708    44080.305    283.60202   -570.90678    431.98088   -138.92589    274.36438   -570.90678            0   -11.880352            0            0            0            0            0            0 
14992000    496.23536    45363.983    308.71782   -565.58437    470.23712   -95.347259    232.95568   -565.58437            0    -11.54417            0            0            0            0            0            0 
14993000    636.92451    45204.426    291.96746   -557.47832    444.72306   -112.75526     307.1437   -557.47832            0   -11.584918            0            0            0            0            0            0 
14994000    547.31964    45045.626    290.23784   -570.30909    442.08851   -128.22057    231.33791   -570.30909            0   -11.625758            0            0            0            0            0            0 
14995000    904.90547    42452.003    316.71727   -575.74831    482.42182   -93.326485    466.91761   -575.74831            0   -12.336039            0            0            0            0            0            0 
14996000    675.93238    44886.905    303.67444   -560.02937    462.55506   -97.474307    345.01094   -560.02937            0   -11.666867            0            0            0            0            0            0 
14997000    617.42946    45675.994    316.03096   -557.93692    481.37644   -76.560484    334.73245   -557.93692            0   -11.465313            0            0            0            0            0            0 
14998000    586.88306    44518.241    281.04547   -568.57188    428.08676   -140.48513    240.55039   -568.57188            0   -11.763482            0            0            0            0            0            0 
14999000    737.97798    43766.182    304.24145    -572.6882    463.41873   -109.26947    361.77071    -572.6882            0   -11.965621            0            0            0            0            0            0 
15000000    745.57596    42734.621    297.10054   -590.98458    452.54173   -138.44285    326.23038   -590.98458            0   -12.254456            0            0            0            0            0            0 
Loop time of 1691.65 on 8 procs for 5000000 steps with 512 atoms

Pair  time (%) = 1033.37 (61.0868)
Bond  time (%) = 0.456716 (0.0269984)
Neigh time (%) = 33.652 (1.98931)
Comm  time (%) = 470.383 (27.8062)
Outpt time (%) = 0.234766 (0.013878)
Other time (%) = 153.547 (9.07677)

Nlocal:    64 ave 77 max 57 min
Histogram: 2 0 2 2 0 0 1 0 0 1
Nghost:    1570.62 ave 1652 max 1490 min
Histogram: 1 0 1 0 3 1 0 0 0 2
Neighs:    7755.25 ave 9858 max 6635 min
Histogram: 2 1 2 1 0 0 1 0 0 1

Total # of neighbors = 62042
Ave neighs/atom = 121.176
Ave special neighs/atom = 0
Neighbor list builds = 79831
Dangerous builds = 0

Averages
Group Pressure(MPa) Volume(m3) Temperature(K) PE(J) KE(J) ET(J) ET^2(J) H(J) H^2(J^2) V^2(m6) V*H(m3*J) Hconf(J) Uext*Hconf(J^2) V*Hconf(m3*J) Uext(J)
Block1 69.8350812216964556 4.4559514428799954511e-26 300.2611098902650042 -3.887543609163138929e-18 3.1775692406115375036e-18 -7.099743685515968032e-19 5.2705501504704936285e-37 2.3979350695493266178e-18 5.9589640440189692082e-36 1.9863360298105697565e-51 1.0680034797630832645e-43 -7.796341710622098266e-19 3.048894486294929199e-36 -3.4797013071414579065e-44 -3.887543609163138929e-18
Block2 69.331646917369496919 4.4595209104189093029e-26 300.26247276092982474 -3.8873985393273844779e-18 3.1775836634447302752e-18 -7.0981487588265381749e-19 5.2554008588368948533e-37 2.3779975345354380002e-18 5.8701344193139962399e-36 1.9895157417664306894e-51 1.0598264470834919485e-43 -7.9958612890928996396e-19 3.1267638887330536244e-36 -3.5721818334161615273e-44 -3.8873985393273844779e-18
Block3 69.758637074196883532 4.4569490826216815858e-26 300.14311002383493587 -3.8872931590743859234e-18 3.1763204849997912133e-18 -7.1097267407459047303e-19 5.2732908503955301337e-37 2.394069466342855142e-18 5.9383766548856410517e-36 1.9873106429556270284e-51 1.0665041606024055235e-43 -7.8225101865693164163e-19 3.0591058195567378436e-36 -3.4910832826519926357e-44 -3.8872931590743859234e-18
Block4 69.833871245265171979 4.4576220582588812995e-26 299.74527569412896355 -3.8866591244253206213e-18 3.1721103289479655085e-18 -7.145487954773573276e-19 5.3304855626239118593e-37 2.3947551253357788649e-18 5.9472776018404428081e-36 1.9878192751823495034e-51 1.0670714734888941524e-43 -7.7735520361218250282e-19 3.0416447326703498549e-36 -3.4693781098044673634e-44 -3.8866591244253206213e-18
Block5 69.77909748196127282 4.4569114976129187026e-26 300.04860951844591455 -3.8877350548590917797e-18 3.1753204157625232051e-18 -7.1241463909656732266e-19 5.3042356002919414249e-37 2.3936691917061267499e-18 5.920356802598474934e-36 1.9872890713866032435e-51 1.0664918892614790641e-43 -7.8165122405640175158e-19 3.0562189635507363282e-36 -3.4874341303897347231e-44 -3.8877350548590917797e-18
Ave_blocks 69.707666788097853328 4.4573909983584768092e-26 300.09211557752098543 -3.8873258973698646544e-18 3.1757808267533093871e-18 -7.115450706165531488e-19 5.2867926045237537117e-37 2.3916852774939053061e-18 5.9270219045315041802e-36 1.9876541522203160442e-51 1.0655794900398708304e-43 -7.8409554925940302176e-19 3.0665255781611612364e-36 -3.499955732680763329e-44 -3.8873258973698646544e-18
Stdev_blocks 0.19039603996488299598 1.190583430238675813e-29 0.19098259770006134617 3.6489535088308000137e-22 2.0211089879916210119e-21 1.7644732344906330016e-21 2.6999589124247347954e-39 7.0065461658972226959e-21 3.1113127333209826956e-38 1.047044463997686965e-54 2.92871070736422238e-46 7.933110759259163394e-21 3.0724078686804078126e-38 3.6871000245666943079e-46 3.6489535088308000137e-22






Properties
Group rho(kg/m3) Cp(J/K) Cp_conf(J/K) Cp_id(J/K) Cp2(J/K) kT(1/Pa) aP(1/K) aP2(1/K) Cv(J/K) uJT(K/Pa) sos(m/s) Cv2(J/K) uJT2(K/Pa) sos2(m/s) CvNVT(J/K)
Block1 306.09027802522172124 1.6780221253947285685e-19 4.2261538840317433542e-21 3.0426072965084269369e-20 3.4652226849116012723e-20 4.2533980961296653707e-09 -0.00091001580234887583659 -0.0010257388791747195679 1.6519725066999047653e-19 -3.3810675212702018566e-07 883.29271734876999744 3.1342614432921091489e-20 -1.6819518410342835039e-06 921.52088051300449933 1.8470737443663856174e-20
Block2 305.84527876782715339 1.7293477381020838871e-19 4.1856611977016509401e-21 3.0426116586677193885e-20 3.4611777784378844825e-20 4.2357106589337022451e-09 -0.0011646955414913546731 -0.001154879797248238929 1.6864644772675080942e-19 -3.4805489339252381384e-07 889.68963873215443527 3.0395428858550371883e-20 -1.7352289498926067147e-06 937.54858433277422591 1.7435443279547304312e-20
Block3 306.02176303430729831 1.6627519017773580067e-19 5.0207245916376065902e-21 3.0422297767113657272e-20 3.5443022358751263862e-20 4.7166529549012167197e-09 -0.00093879001549957666762 -0.00083528293231154091946 1.6377559860186980569e-19 -3.4357438763392303534e-07 838.67946823504985332 3.3464234016753762055e-20 -1.5727569302064675004e-06 856.60738122685893359 1.7565101938108196916e-20
Block4 305.9755623496635053 1.7124532271605755041e-19 6.9429457054072260276e-21 3.0409593681798977782e-20 3.735253938720620381e-20 4.2273014541519236062e-09 -0.00075928831679746987444 -0.00076360531708729532246 1.6942308174711978881e-19 -3.1955010106310995837e-07 883.99150235782178697 3.5509518491116840567e-20 -1.4665439814354982214e-06 901.80511484253702292 1.8112884541507654162e-20
Block5 306.02434370719066692 1.5342450101859831643e-19 4.8343234777447647479e-21 3.0419276729501649454e-20 3.5253600207246415706e-20 4.7827994063932891718e-09 -0.00062327135453548192148 -0.00066496058413133165947 1.5233833103577236794e-19 -3.4482146417494910004e-07 829.51394648964196676 3.4017267757674792716e-20 -1.5164853151567847343e-06 841.45898545329475837 1.8414471646184780297e-20
Ave_blocks 305.99144517684203493 1.6633640005241459224e-19 5.0419617713045986329e-21 3.0420671546035149552e-20 3.5462633317339748185e-20 4.4431725141019595881e-09 -0.00087921220613455168622 -0.00088889350199062525798 1.6387614195630065931e-19 -3.3882151967830521865e-07 865.03345463268783533 3.294581271140337415e-20 -1.5945934035451282196e-06 891.78818927369388803 1.7999727769802359576e-20
Stdev_blocks 0.081714504248284636212 6.8775802070293457281e-21 1.0055941306270922733e-21 6.1013601685373493358e-24 9.9965375660167193442e-22 2.5131376526475921875e-10 0.00018214640837848269646 0.00017787216796350774719 6.1384179757317248621e-21 1.0156207422135816436e-08 25.522161823015480309 1.8473801129155743715e-21 1.0038347776318764676e-07 37.011088863124662396 4.2754734249410194634e-22






