LAMMPS (28 Oct 2012)
Scanning data file ...
Reading data file ...
  orthogonal box = (0 0 0) to (100 100 100)
  2 by 2 by 2 MPI processor grid
  512 atoms
Finding 1-2 1-3 1-4 neighbors ...
  0 = max # of 1-2 neighbors
  0 = max # of 1-3 neighbors
  0 = max # of 1-4 neighbors
  1 = max # of special neighbors
WARNING: Resetting reneighboring criteria during minimization (min.cpp:173)
Setting up minimization ...
Memory usage per processor = 4.05499 Mbytes
Step Temp E_pair E_mol TotEng Press 
       0       340.15    1409.7233            0    1927.8378    436.20065 
     701       340.15   -217.27527            0    300.83915    23.455756 
Loop time of 0.0553728 on 8 procs for 701 steps with 512 atoms

Minimization stats:
  Stopping criterion = energy tolerance
  Energy initial, next-to-last, final = 
         1409.72334813     -217.256630745     -217.275265106
  Force two-norm initial, final = 5034.49 0.337455
  Force max component initial, final = 2457.89 0.147661
  Final line search alpha, max atom move = 0.254892 0.0376377
  Iterations, force evaluations = 701 710

Pair  time (%) = 0.00893736 (16.1403)
Bond  time (%) = 5.69224e-05 (0.102799)
Neigh time (%) = 0.00314367 (5.67728)
Comm  time (%) = 0.0225895 (40.7953)
Outpt time (%) = 0 (0)
Other time (%) = 0.0206454 (37.2843)

Nlocal:    64 ave 74 max 52 min
Histogram: 1 0 0 1 1 2 0 2 0 1
Nghost:    235.125 ave 266 max 224 min
Histogram: 4 0 2 0 0 1 0 0 0 1
Neighs:    316.25 ave 371 max 226 min
Histogram: 1 0 0 1 1 1 0 1 0 3

Total # of neighbors = 2530
Ave neighs/atom = 4.94141
Ave special neighs/atom = 0
Neighbor list builds = 60
Dangerous builds = 0
Setting up run ...
Memory usage per processor = 3.36354 Mbytes
Step Temp E_pair E_mol TotEng Press Volume 
     701       340.15   -217.27527            0    300.83915    23.455756      1000000 
 5000701    330.60961   -491.15021            0    12.432346    552.17181     49983.27 
Loop time of 1694.94 on 8 procs for 5000000 steps with 512 atoms

Pair  time (%) = 947.381 (55.8945)
Bond  time (%) = 0.480167 (0.0283294)
Neigh time (%) = 34.2771 (2.02231)
Comm  time (%) = 546.843 (32.2632)
Outpt time (%) = 5.71609e-05 (3.37243e-06)
Other time (%) = 165.964 (9.79168)

Nlocal:    64 ave 72 max 56 min
Histogram: 2 0 0 1 1 1 1 0 0 2
Nghost:    1398.75 ave 1414 max 1376 min
Histogram: 1 0 2 0 0 0 0 2 2 1
Neighs:    6664.75 ave 7803 max 5906 min
Histogram: 2 1 1 1 0 0 2 0 0 1

Total # of neighbors = 53318
Ave neighs/atom = 104.137
Ave special neighs/atom = 0
Neighbor list builds = 85225
Dangerous builds = 14
Setting up run ...
Memory usage per processor = 3.96895 Mbytes
Step Press Volume Temp PotEng KinEng TotEng Enthalpy E_vdwl E_coul E_tail E_long E_bond E_angle E_dihed E_impro E_mol 
10000000    552.17181     49983.27    330.60961   -491.15021    503.58256    12.432346     414.9406   -491.15021            0   -10.477297            0            0            0            0            0            0 
10001000    694.12577    48305.417    330.36362   -510.26437    503.20786   -7.0565056    481.94465   -510.26437            0   -10.841218            0            0            0            0            0            0 
10002000    672.46786    48815.094    327.61146   -502.93335    499.01579    -3.917553    474.82448   -502.93335            0   -10.728025            0            0            0            0            0            0 
10003000    596.58417     48600.52    352.00339   -516.89117    536.16943    19.278252    442.13039   -516.89117            0    -10.77539            0            0            0            0            0            0 
10004000    728.51026    49666.768    343.37981   -483.85818    523.03404    39.175862    566.86415   -483.85818            0   -10.544063            0            0            0            0            0            0 
10005000    715.07888    48309.596    354.69436   -505.50647    540.26829    34.761818    538.56771   -505.50647            0    -10.84028            0            0            0            0            0            0 
10006000    629.39811    48475.257    338.03485   -511.65398    514.89263    3.2386562    448.19914   -511.65398            0   -10.803234            0            0            0            0            0            0 
10007000    692.58567    47731.628    319.01359    -513.0792    485.91956   -27.159641    454.96091    -513.0792            0   -10.971542            0            0            0            0            0            0 
10008000    578.71174    50291.348    346.10024   -495.25136    527.17779     31.92643    456.38124   -495.25136            0   -10.413114            0            0            0            0            0            0 
10009000    852.20946    47147.287    329.85209   -504.10805     502.4287    -1.679348    584.29546   -504.10805            0   -11.107522            0            0            0            0            0            0 
10010000    771.26805    50185.925    358.86119   -483.47984    546.61519     63.13535    627.63434   -483.47984            0   -10.434988            0            0            0            0            0            0 
10011000    598.07854    49899.608    328.59753   -491.02506    500.51776    9.4927049    444.73515   -491.02506            0   -10.494863            0            0            0            0            0            0 
10012000    658.62662    47723.925    338.70493   -514.00211     515.9133    1.9111921    460.31828   -514.00211            0   -10.973312            0            0            0            0            0            0 
10013000    705.26961    48727.029    339.58615   -497.75153    517.25557    19.504033    520.69242   -497.75153            0   -10.747414            0            0            0            0            0            0 
10014000    711.38579    48282.748    338.91661   -502.73638    516.23572    13.499339    514.42474   -502.73638            0   -10.846308            0            0            0            0            0            0 
10015000    650.87101      50700.4    340.00134   -486.24375    517.88799    31.644241    512.90694   -486.24375            0   -10.329101            0            0            0            0            0            0 
10016000    775.93028    48753.887    304.49087   -484.02598    463.79865   -20.227324    531.47884   -484.02598            0   -10.741493            0            0            0            0            0            0 
10017000    680.56289    48406.742    340.75072   -509.64706    519.02943    9.3823705    489.83437   -509.64706            0   -10.818525            0            0            0            0            0            0 
10018000     729.3525    49641.755      334.574   -477.64213    509.62108    31.978957    560.01126   -477.64213            0   -10.549376            0            0            0            0            0            0 
10019000     659.0419    50014.584    351.07065   -490.69548    534.74868    44.053197    524.76587   -490.69548            0   -10.470737            0            0            0            0            0            0 
10020000    644.91132    47411.066    335.31895   -528.94154    510.75579   -18.185742    427.73288   -528.94154            0   -11.045724            0            0            0            0            0            0 
10021000    656.37764    47890.127    327.31782   -510.72437    498.56852   -12.155849    446.27693   -510.72437            0    -10.93523            0            0            0            0            0            0 
10022000    722.15556    47755.585    344.17364   -511.54156     524.2432    12.701646     515.6586   -511.54156            0   -10.966038            0            0            0            0            0            0 
10023000    621.01212    48825.432    359.81474   -513.75755    548.06763    34.310079    476.51346   -513.75755            0   -10.725753            0            0            0            0            0            0 
10024000    806.77961    49750.782     340.1505   -473.39248    518.11517    44.722692    630.09303   -473.39248            0   -10.526258            0            0            0            0            0            0 
10025000    581.48638    46582.745    331.17634    -545.7108    504.44579   -41.265007    353.77449    -545.7108            0   -11.242136            0            0            0            0            0            0 
10026000    687.51671     48778.75    330.74701   -494.72592    503.79184    9.0659283    498.15709   -494.72592            0   -10.736018            0            0            0            0            0            0 
10027000     679.2801    50244.188    336.95022   -482.89715    513.24053    30.343377    528.09262   -482.89715            0   -10.422888            0            0            0            0            0            0 
10028000    653.09292    48797.491    355.72073   -509.20464    541.83166    32.627017    497.40801   -509.20464            0   -10.731895            0            0            0            0            0            0 
10029000     776.3251    47910.995    356.11842   -504.96702    542.43742    37.470399    579.91414   -504.96702            0   -10.930467            0            0            0            0            0            0 
10030000    854.64726    47932.533    337.14959   -491.64324    513.54421    21.900965    619.33943   -491.64324            0   -10.925555            0            0            0            0            0            0 
10031000    655.96004    49937.711    331.68946   -488.72258    505.22738    16.504805    494.23413   -488.72258            0   -10.486855            0            0            0            0            0            0 
10032000    707.34921     48230.53    343.03555    -502.2236    522.50966    20.286066    517.83041    -502.2236            0   -10.858051            0            0            0            0            0            0 
10033000    705.05797    49037.367     340.7651    -495.5474    519.05133    23.503938    527.73298    -495.5474            0   -10.679398            0            0            0            0            0            0 
10034000    725.83579    49373.916    341.01008   -493.41058    519.42449    26.013911    548.66498   -493.41058            0   -10.606603            0            0            0            0            0            0 
10035000    749.54879    47672.507    340.54696   -508.49354    518.71907    10.225525    531.35278   -508.49354            0   -10.985148            0            0            0            0            0            0 
10036000    672.23936    47654.063    349.83335   -517.12208    532.86404    15.741957    482.93865   -517.12208            0     -10.9894            0            0            0            0            0            0 
10037000    612.88803    50077.205    326.31172   -485.94315    497.03604    11.092884    458.70012   -485.94315            0   -10.457643            0            0            0            0            0            0 
10038000    577.12099    50818.225    335.81558   -483.22668    511.51226    28.285582    456.00823   -483.22668            0   -10.305152            0            0            0            0            0            0 
10039000    650.25835    48709.626    324.24175   -503.65987    493.88307   -9.7768014    452.15368   -503.65987            0   -10.751254            0            0            0            0            0            0 
10040000    648.96066    49601.751    352.34819   -498.02219    536.69462    38.672435    508.12452   -498.02219            0   -10.557884            0            0            0            0            0            0 
10041000    805.20712    48363.937     354.2822   -496.64317    539.64049    42.997325    610.94084   -496.64317            0     -10.8281            0            0            0            0            0            0 
10042000    639.42849    50887.826    341.31909   -482.67472    519.89517    37.220446    511.77022   -482.67472            0   -10.291058            0            0            0            0            0            0 
10043000    630.66475    48088.759    337.95545   -519.65182     514.7717   -4.8801219    437.42098   -519.65182            0   -10.890061            0            0            0            0            0            0 
10044000    669.96701    49134.882    340.11871   -497.35305    518.06676    20.713707    500.79991   -497.35305            0   -10.658203            0            0            0            0            0            0 
10045000    637.41979    48740.612    323.68507   -498.61476    493.03514   -5.5796206    447.51866   -498.61476            0   -10.744419            0            0            0            0            0            0 
10046000    645.91544    50420.846    367.23592   -487.68257    559.37153    71.688965    546.65405   -487.68257            0    -10.38637            0            0            0            0            0            0 
10047000    677.30342    48346.181    339.40686   -508.58968    516.98248    8.3928002    485.94553   -508.58968            0   -10.832077            0            0            0            0            0            0 
10048000    543.70749    50283.771     344.5649   -498.61078    524.83917    26.228384    424.94933   -498.61078            0   -10.414683            0            0            0            0            0            0 
10049000    678.24284    47729.081    348.44988   -516.49191    530.75675    14.264838     486.3759   -516.49191            0   -10.972127            0            0            0            0            0            0 
10050000    751.51112     47352.05    362.41342   -524.99628    552.02592    27.029638    546.00899   -524.99628            0   -11.059491            0            0            0            0            0            0 
10051000    710.65711    48235.899    336.52503   -508.60315    512.59289     3.989744    503.91649   -508.60315            0   -10.856842            0            0            0            0            0            0 
10052000    698.92602    49220.245    335.81123   -493.74904    511.50563    17.756595    519.46441   -493.74904            0   -10.639718            0            0            0            0            0            0 
10053000    592.28599     49713.56    335.11281    -497.5572     510.4418    12.884609    442.30456    -497.5572            0   -10.534139            0            0            0            0            0            0 
10054000    754.79521    47385.097    350.26576   -511.86972    533.52267    21.652958    543.26403   -511.86972            0   -11.051777            0            0            0            0            0            0 
10055000     634.2653    48461.403    357.71576   -515.94247    544.87048    28.928012    477.20126   -515.94247            0   -10.806322            0            0            0            0            0            0 
10056000    683.58521     50506.21     331.4763   -474.94292    504.90268    29.959759    533.47582   -474.94292            0   -10.368815            0            0            0            0            0            0 
10057000    647.03838    49219.469    326.56374    -490.0512    497.41991    7.3687114    471.82287    -490.0512            0   -10.639886            0            0            0            0            0            0 
10058000    597.29517    48683.455    332.86015   -506.67769    507.01056   0.33286856    424.41139   -506.67769            0   -10.757033            0            0            0            0            0            0 
10059000    752.62956    49262.422    320.00938   -481.97947    487.43635    5.4568762    546.17748   -481.97947            0   -10.630609            0            0            0            0            0            0 
10060000    597.16706     49437.65    350.49891   -503.91725    533.87782    29.960571    460.51648   -503.91725            0    -10.59293            0            0            0            0            0            0 
10061000    748.53228    47062.841    349.91427   -512.02012    532.98729    20.967168    534.73223   -512.02012            0   -11.127453            0            0            0            0            0            0 
10062000    727.32934    47401.889    329.38539   -517.72202    501.71782   -16.004196    486.80434   -517.72202            0   -11.047862            0            0            0            0            0            0 
10063000    706.27282    48679.213     347.9403   -500.20339    529.98056    29.777171    531.18595   -500.20339            0   -10.757971            0            0            0            0            0            0 
10064000    747.50083     48952.48    340.54687   -490.98574    518.71892    27.733181    561.39025   -490.98574            0   -10.697917            0            0            0            0            0            0 
10065000    876.20155    47071.905    351.51535   -502.76049    535.42605    32.665562    634.17394   -502.76049            0    -11.12531            0            0            0            0            0            0 
10066000    667.35382     49977.59    318.07727   -484.86901    484.49337  -0.37564147    486.03979   -484.86901            0   -10.478487            0            0            0            0            0            0 
10067000    655.89345    47249.122    323.58505   -523.39041    492.88279    -30.50762    421.45543   -523.39041            0   -11.083583            0            0            0            0            0            0 
10068000    720.24084    47595.468     353.0602   -515.17674    537.77916    22.602428    522.54398   -515.17674            0   -11.002929            0            0            0            0            0            0 
10069000    654.63137    48605.898    343.44748   -511.59585    523.13712     11.54127    475.58796   -511.59585            0   -10.774197            0            0            0            0            0            0 
10070000    741.71152    49015.644    319.36928   -485.72084    486.46135   0.74051158    530.94772   -485.72084            0   -10.684131            0            0            0            0            0            0 
10071000    775.64295     49330.61    327.00214   -481.23419    498.08768    16.853486    574.87922   -481.23419            0   -10.615915            0            0            0            0            0            0 
10072000    699.89582    48443.171    362.25238   -508.03126    551.78063    43.749365    538.22153   -508.03126            0   -10.810389            0            0            0            0            0            0 
10073000    863.06025    47573.981    354.36765   -495.68437    539.77066    44.086288    642.89278   -495.68437            0   -11.007898            0            0            0            0            0            0 
10074000    604.19131    50451.205    332.09889   -482.66213    505.85101    23.188881    467.74021   -482.66213            0    -10.38012            0            0            0            0            0            0 
10075000    674.03358    49979.721    338.93318   -484.28045    516.26097    31.980514    523.28559   -484.28045            0   -10.478041            0            0            0            0            0            0 
10076000    657.02847    47504.942    330.80574   -520.38558     503.8813   -16.504281    438.69218   -520.38558            0   -11.023896            0            0            0            0            0            0 
10077000    535.75163    50242.551    334.83877   -493.27331    510.02439    16.751076    409.31562   -493.27331            0   -10.423228            0            0            0            0            0            0 
10078000    610.29278    49120.925    327.93742   -496.99112    499.51229    2.5211661    439.72167   -496.99112            0   -10.661231            0            0            0            0            0            0 
10079000    598.72342    51250.739    328.36527   -478.26178    500.16399    21.902209    469.41172   -478.26178            0   -10.218185            0            0            0            0            0            0 
10080000    726.59216    47842.014    356.90406   -514.48889     543.6341    29.145211    536.10796   -514.48889            0   -10.946227            0            0            0            0            0            0 
10081000    834.14557    48122.583    353.18186    -494.6676    537.96446    43.296862    628.71566    -494.6676            0   -10.882407            0            0            0            0            0            0 
10082000    836.01514    47808.799    330.06548   -501.27163    502.75373    1.4821064    584.38723   -501.27163            0   -10.953832            0            0            0            0            0            0 
10083000    548.41467    48230.111    339.39899   -519.82111    516.97048   -2.8506342    382.89695   -519.82111            0   -10.858145            0            0            0            0            0            0 
10084000    698.47166    47106.931    337.94063   -516.11609    514.74911   -1.3669832    478.48743   -516.11609            0   -11.117038            0            0            0            0            0            0 
10085000    773.96324    48756.222    334.98042   -493.38203    510.24015    16.858116    567.19202   -493.38203            0   -10.740979            0            0            0            0            0            0 
10086000    555.88859    50319.193    331.28722   -492.64739    504.61469    11.967303    419.90827   -492.64739            0   -10.407352            0            0            0            0            0            0 
10087000    631.66047     49066.17    337.22915   -493.40749     513.6654    20.257905    472.26135   -493.40749            0   -10.673129            0            0            0            0            0            0 
10088000    658.20192    48325.723     343.0363   -506.79125    522.51081    15.719557    479.60784   -506.79125            0   -10.836662            0            0            0            0            0            0 
10089000    611.70161    48321.316    332.93698   -515.05247    507.12759   -7.9248813    423.15154   -515.05247            0   -10.837651            0            0            0            0            0            0 
10090000    798.31314    49490.207     363.6229    -483.6823     553.8682      70.1859    646.37952    -483.6823            0    -10.58168            0            0            0            0            0            0 
10091000    779.48486    49069.147     341.0361   -485.38105    519.46412    34.083077    591.90051   -485.38105            0   -10.672481            0            0            0            0            0            0 
10092000    698.84642     48239.43    345.03134    -506.7115    525.54964    18.838142     510.4924    -506.7115            0   -10.856047            0            0            0            0            0            0 
10093000     839.8231    46516.834    338.04045   -518.92611    514.90116   -4.0249539    565.71129   -518.92611            0   -11.258065            0            0            0            0            0            0 
10094000    646.36289    48908.996    329.19457   -502.47484    501.42717   -1.0476682    459.99492   -502.47484            0   -10.707428            0            0            0            0            0            0 
10095000    624.98787    48135.937    338.60369   -516.01268    515.75909  -0.25359616    438.49618   -516.01268            0   -10.879388            0            0            0            0            0            0 
10096000    633.18982    50941.585    351.55937   -476.63838     535.4931    58.854717    529.27092   -476.63838            0   -10.280197            0            0            0            0            0            0 
10097000    776.12118    47642.319    333.44796   -508.80537    507.90592  -0.89945813    538.36068   -508.80537            0   -10.992109            0            0            0            0            0            0 
10098000    763.72564    48874.352    337.10666   -495.13001    513.47883    18.348823    562.71894   -495.13001            0   -10.715018            0            0            0            0            0            0 
10099000    603.33787    50756.569    321.42235   -485.72468    489.58857    3.8638944    450.47419   -485.72468            0    -10.31767            0            0            0            0            0            0 
10100000    710.72038     48822.92     329.8439   -501.44051    502.41623   0.97572232    507.03152   -501.44051            0   -10.726305            0            0            0            0            0            0 
10101000     614.7895    49664.648    333.19375   -492.64045     507.5187    14.878249    460.17517   -492.64045            0   -10.544513            0            0            0            0            0            0 
10102000    517.81482    49461.568    327.21277   -503.44263    498.40851   -5.0341206    368.48965   -503.44263            0   -10.587807            0            0            0            0            0            0 
10103000    574.62681    48369.365    323.33146   -515.16841    492.49651   -22.671899    382.67995   -515.16841            0   -10.826885            0            0            0            0            0            0 
10104000    724.85966     48820.35    359.40648   -496.46198    547.44577    50.983781    567.08004   -496.46198            0    -10.72687            0            0            0            0            0            0 
10105000    689.13102    48677.289    320.17399   -495.02015    487.68708   -7.3330689    481.88678   -495.02015            0   -10.758396            0            0            0            0            0            0 
10106000    641.33936    47246.602    349.92014   -528.86257    532.99623    4.1336551     446.0442   -528.86257            0   -11.084174            0            0            0            0            0            0 
10107000     565.0518    49645.697    330.66284   -493.22573    503.66364    10.437906    419.55324   -493.22573            0   -10.548538            0            0            0            0            0            0 
10108000    654.25018    47620.655    336.40549   -518.66214     512.4108   -6.2513395    448.12437   -518.66214            0   -10.997109            0            0            0            0            0            0 
10109000    632.48808    50079.343     355.6208   -491.34686    541.67944    50.332583    512.27395   -491.34686            0   -10.457197            0            0            0            0            0            0 
10110000    667.87596    48835.825    347.18455   -495.77923    528.82939    33.050163    508.72506   -495.77923            0   -10.723471            0            0            0            0            0            0 
10111000    539.13077    49495.414    335.25107   -505.32593    510.65239    5.3264554    394.49252   -505.32593            0   -10.580567            0            0            0            0            0            0 
10112000    615.03209    47225.744    331.60062   -516.96287    505.09206   -11.870817    411.72579   -516.96287            0   -11.089069            0            0            0            0            0            0 
10113000    587.99884    48649.261    322.02409   -509.09072    490.50515   -18.585568    398.59936   -509.09072            0   -10.764594            0            0            0            0            0            0 
10114000    598.24196     49098.85    326.91592   -506.40906    497.95635    -8.452709    419.92225   -506.40906            0   -10.666025            0            0            0            0            0            0 
10115000    626.48556    49432.849    315.97866   -495.51769    481.29678   -14.220909     437.4297   -495.51769            0   -10.593958            0            0            0            0            0            0 
10116000    561.81294    48208.996    333.71828   -516.69633    508.31766   -8.3786774    386.62007   -516.69633            0   -10.862901            0            0            0            0            0            0 
10117000    507.42627    48981.889    324.66213   -513.81353    494.52339   -19.290134    343.19013   -513.81353            0   -10.691493            0            0            0            0            0            0 
10118000    625.39421     50433.42    342.90814   -491.20883     522.3156    31.106769    491.09653   -491.20883            0    -10.38378            0            0            0            0            0            0 
10119000    806.60453     47851.06    336.38121     -498.261    512.37382    14.112819    577.00875     -498.261            0   -10.944158            0            0            0            0            0            0 
10120000    871.33328    48901.798    346.74691   -478.68406     528.1628    49.478742    670.89845   -478.68406            0   -10.709004            0            0            0            0            0            0 
10121000    706.87372    48601.534    347.17432   -504.71569    528.81382    24.098138    525.13272   -504.71569            0   -10.775165            0            0            0            0            0            0 
10122000    625.39531    49449.479    323.78516   -495.82103    493.18759   -2.6334412    448.38286   -495.82103            0   -10.590396            0            0            0            0            0            0 
10123000    815.58981    47763.538    336.07406   -505.74019    511.90597    6.1657748    574.29112   -505.74019            0   -10.964212            0            0            0            0            0            0 
10124000    688.52304     48679.28    331.32797   -501.68731    504.67675    2.9894426    491.79768   -501.68731            0   -10.757956            0            0            0            0            0            0 
10125000    582.94713    50857.084      324.324   -482.86868    494.00836     11.13967    443.51062   -482.86868            0   -10.297278            0            0            0            0            0            0 
10126000    579.64954     48667.11    328.59724   -507.38831    500.51733   -6.8709817    404.54101   -507.38831            0   -10.760646            0            0            0            0            0            0 
10127000    723.70967    48495.097     339.4481   -498.29634    517.04529     18.74895    530.59352   -498.29634            0   -10.798814            0            0            0            0            0            0 
10128000     556.0188    49312.931    335.53674   -502.65325    511.08753    8.4342797    408.31106   -502.65325            0    -10.61972            0            0            0            0            0            0 
10129000    613.51962    47836.346    332.03803   -518.48656    505.75831   -12.728247    415.29005   -518.48656            0   -10.947524            0            0            0            0            0            0 
10130000    699.04424    49506.443    321.21734   -482.61752     489.2763    6.6587883    511.36922   -482.61752            0    -10.57821            0            0            0            0            0            0 
10131000    750.72547    49016.599    340.53343   -493.20601    518.69846    25.492452    562.15367   -493.20601            0   -10.683923            0            0            0            0            0            0 
10132000    745.16893     47104.47    350.62278   -513.54802    534.06649    20.518475    532.42746   -513.54802            0   -11.117619            0            0            0            0            0            0 
10133000    635.56416    49262.879    358.71738   -501.75722    546.39613    44.638917    501.25907   -501.75722            0    -10.63051            0            0            0            0            0            0 
10134000    621.81154    49502.501    332.02097   -502.87078    505.73232    2.8615455    451.77416   -502.87078            0   -10.579052            0            0            0            0            0            0 
10135000    719.26128    48175.524    339.96238   -505.76355    517.82864    12.065087     517.4113   -505.76355            0   -10.870448            0            0            0            0            0            0 
10136000    629.94234    48392.684    347.22304   -514.48669    528.88804    14.401345    458.98798   -514.48669            0   -10.821668            0            0            0            0            0            0 
10137000    632.81283    47549.508     328.2314   -521.67252    499.96008    -21.71244    417.11845   -521.67252            0   -11.013564            0            0            0            0            0            0 
10138000    689.08178    49222.052    335.74562   -484.81789     511.4057    26.587805    521.24733   -484.81789            0   -10.639328            0            0            0            0            0            0 
10139000     876.8705    47530.394    345.62622   -496.65806    526.45577    29.797708    637.62859   -496.65806            0   -11.017993            0            0            0            0            0            0 
10140000    558.30899     52643.84     327.8456   -467.04829    499.37244    32.324144    460.96946   -467.04829            0   -9.9477838            0            0            0            0            0            0 
10141000    735.28699    47339.594    332.94569    -514.5857    507.14085   -7.4448552    500.19686    -514.5857            0     -11.0624            0            0            0            0            0            0 
10142000    519.81306    49614.116    336.08591   -504.96506    511.92401    6.9589562    383.08061   -504.96506            0   -10.555253            0            0            0            0            0            0 
10143000    607.31512    48970.268    330.55266    -507.2314    503.49581   -3.7355924     429.9974    -507.2314            0   -10.694031            0            0            0            0            0            0 
10144000    630.29079    48948.273    363.76809   -501.59479    554.08935    52.494565    502.43417   -501.59479            0   -10.698836            0            0            0            0            0            0 
10145000    659.75802    49276.105     342.3789     -501.305    521.50946    20.204462    494.33392     -501.305            0   -10.627657            0            0            0            0            0            0 
10146000    657.78215    50732.134    350.66061   -474.51767    534.12412     59.60645    546.28377   -474.51767            0    -10.32264            0            0            0            0            0            0 
10147000    884.43879    46575.365    367.35535   -513.97146    559.55344    45.581984    646.34051   -513.97146            0   -11.243917            0            0            0            0            0            0 
10148000    797.72568    49443.524    341.08372   -476.10677    519.53666    43.429886    618.65638   -476.10677            0   -10.591671            0            0            0            0            0            0 
10149000    651.56446     48382.88    342.01451   -517.50881    520.95443    3.4456167    463.19906   -517.50881            0   -10.823861            0            0            0            0            0            0 
10150000    723.17848    49576.679    353.14345   -483.20575    537.90597    54.700211    577.57634   -483.20575            0   -10.563224            0            0            0            0            0            0 
10151000    644.21069    48587.403    357.22116   -510.01125    544.11711    34.105857     490.5919   -510.01125            0   -10.778299            0            0            0            0            0            0 
10152000    558.07659    51071.238    331.36776    -484.3803    504.73736    20.357064    436.02457    -484.3803            0   -10.254099            0            0            0            0            0            0 
10153000    793.24713     47796.55    341.61851   -507.73034    520.35125     12.62091    565.56465   -507.73034            0   -10.956639            0            0            0            0            0            0 
10154000    614.70372    49987.119    349.72008   -496.15391    532.69151    36.537597    484.66328   -496.15391            0    -10.47649            0            0            0            0            0            0 
10155000    579.22859    49299.039    339.53697    -504.6575    517.18066    12.523162    428.97457    -504.6575            0   -10.622713            0            0            0            0            0            0 
10156000    685.95607    47385.966    330.51263   -523.26047    503.43484   -19.825638    454.22194   -523.26047            0   -11.051575            0            0            0            0            0            0 
10157000    698.40675    49074.168    348.39124    -501.6854    530.66743    28.982025    528.82922    -501.6854            0   -10.671389            0            0            0            0            0            0 
10158000    638.51621    51286.126     353.7397   -476.47401    538.81417    62.340155    539.92189   -476.47401            0   -10.211135            0            0            0            0            0            0 
10159000    748.97149    49379.873    349.18563   -484.39639    531.87744    47.481047    586.85646   -484.39639            0   -10.605324            0            0            0            0            0            0 
10160000    643.44229    50417.756    363.07978   -486.34975    553.04092    66.691164    539.80865   -486.34975            0   -10.387006            0            0            0            0            0            0 
10161000    842.70413    48531.626    354.62634    -485.3336     540.1647    54.831099    651.28359    -485.3336            0   -10.790686            0            0            0            0            0            0 
10162000    730.65732    48624.023    353.67967    -507.7223    538.72273    31.000428    549.13255    -507.7223            0   -10.770181            0            0            0            0            0            0 
10163000    840.86791    46758.917    329.51232   -508.26554    501.91117   -6.3543696    567.05939   -508.26554            0   -11.199779            0            0            0            0            0            0 
10164000    734.81319    49110.837    332.38732   -492.88383    506.29035    13.406526    539.70264   -492.88383            0   -10.663421            0            0            0            0            0            0 
10165000    739.28105    46872.156    329.45807   -515.65352    501.82854   -13.824985    491.53447   -515.65352            0   -11.172722            0            0            0            0            0            0 
10166000    645.32632    49086.389    339.65961   -500.49069    517.36745    16.876763     478.8495   -500.49069            0   -10.668732            0            0            0            0            0            0 
10167000    703.27214    48613.797    339.92658   -495.58809    517.77411    22.186013    520.79355   -495.58809            0   -10.772447            0            0            0            0            0            0 
10168000    769.20996    48876.472    352.57075   -490.98029    537.03363    46.053344    594.35637   -490.98029            0   -10.714553            0            0            0            0            0            0 
10169000    785.46521    49236.943    356.36209   -489.89461    542.80857    52.913961    616.93321   -489.89461            0    -10.63611            0            0            0            0            0            0 
10170000    628.49802    49327.066     353.1975   -498.04516    537.98829    39.943133    492.07496   -498.04516            0   -10.616677            0            0            0            0            0            0 
10171000    539.27012    49107.825    336.69061    -509.7499     512.8451    3.0952024    389.31359    -509.7499            0   -10.664075            0            0            0            0            0            0 
10172000    609.32122    50122.833     340.5536   -484.72122    518.72918    34.007961    479.41574   -484.72122            0   -10.448123            0            0            0            0            0            0 
10173000    733.03872    48170.614    346.16257   -503.76212    527.27273    23.510611    538.48424   -503.76212            0   -10.871556            0            0            0            0            0            0 
10174000    634.84089    50328.257    343.07115   -486.09218     522.5639    36.471713    502.43605   -486.09218            0   -10.405477            0            0            0            0            0            0 
10175000    696.11301    47973.143    340.53935   -506.65172    518.70747    12.055746    499.08361   -506.65172            0   -10.916307            0            0            0            0            0            0 
10176000    644.67979    49151.892    338.22238   -500.03045    515.17827    15.147825    477.27359   -500.03045            0   -10.654515            0            0            0            0            0            0 
10177000    728.65496    48129.882    329.61267   -501.69904    502.06401   0.36497842    511.82609   -501.69904            0   -10.880757            0            0            0            0            0            0 
10178000    636.42245    49493.548    342.59786   -496.12693    521.84299     25.71606    485.09383   -496.12693            0   -10.580966            0            0            0            0            0            0 
10179000    588.94597    49494.803     318.7801   -492.69606    485.56392   -7.1321449    417.98727   -492.69606            0   -10.580698            0            0            0            0            0            0 
10180000    687.12731    48575.031    333.15313   -499.70544    507.45683    7.7513965    494.52407   -499.70544            0   -10.781044            0            0            0            0            0            0 
10181000    778.00825    47846.574    348.95991   -502.75112    531.53362    28.782502    571.67137   -502.75112            0   -10.945184            0            0            0            0            0            0 
10182000    691.44339    48751.644    348.09912   -501.17408    530.22247    29.048392    520.65962   -501.17408            0   -10.741987            0            0            0            0            0            0 
10183000    642.32507    50937.547    329.29939   -476.45822    501.58683    25.128611    502.29384   -476.45822            0   -10.281012            0            0            0            0            0            0 
10184000    638.87685    48954.671    343.20335    -497.5328    522.76527    25.232467    481.36093    -497.5328            0   -10.697438            0            0            0            0            0            0 
10185000     706.9635    48318.813    348.85655   -500.41951    531.37618    30.956678    529.13995   -500.41951            0   -10.838212            0            0            0            0            0            0 
10186000    673.57622    50173.714    346.29108   -479.23924    527.46848     48.22924    541.10661   -479.23924            0   -10.437528            0            0            0            0            0            0 
10187000    735.40018    48237.335     325.3566   -495.63352     495.5812 -0.052315493    517.29587   -495.63352            0   -10.856519            0            0            0            0            0            0 
10188000    650.15184    48827.371    351.28757   -503.90741    535.07909    31.171681    494.14293   -503.90741            0   -10.725328            0            0            0            0            0            0 
10189000    692.55075    48708.993    355.06574   -498.16597    540.83399    42.668012    534.63578   -498.16597            0   -10.751393            0            0            0            0            0            0 
10190000    606.16432     48730.44    330.72572   -508.64191    503.75942   -4.8824974    425.90847   -508.64191            0   -10.746662            0            0            0            0            0            0 
10191000    751.32542    51575.814    347.06333   -455.61826    528.64476    73.026497    638.15871   -455.61826            0   -10.153782            0            0            0            0            0            0 
10192000    685.61947    46378.995    318.05153   -528.16516    484.45416   -43.710999     420.0352   -528.16516            0   -11.291524            0            0            0            0            0            0 
10193000    720.54279     50976.44    354.38973   -471.00295    539.80429    68.801333    604.48101   -471.00295            0   -10.273168            0            0            0            0            0            0 
10194000    756.03987    48967.202    345.43687   -494.55706    526.16735    31.610281    571.52589   -494.55706            0     -10.6947            0            0            0            0            0            0 
10195000    627.22729    50127.555    333.42993   -490.59058    507.87845    17.287873    475.82801   -490.59058            0   -10.447139            0            0            0            0            0            0 
10196000    698.14343    50017.578     348.0502   -487.93677    530.14795    42.211185    551.47546   -487.93677            0    -10.47011            0            0            0            0            0            0 
10197000    742.08353    50007.459    332.70224   -470.06928    506.77004    36.700757    577.90783   -470.06928            0   -10.472229            0            0            0            0            0            0 
10198000    723.48429    48804.648    337.12369   -499.88049    513.50475     13.62426    528.57558   -499.88049            0   -10.730321            0            0            0            0            0            0 
10199000    530.76691    50099.309    333.28126   -500.24098      507.652     7.411022    395.21429   -500.24098            0   -10.453029            0            0            0            0            0            0 
10200000    740.04988    48650.941    323.95499    -492.3674    493.44628    1.0788781    526.16209    -492.3674            0   -10.764222            0            0            0            0            0            0 
10201000    687.87508    48072.978    320.46086   -502.44586    488.12403   -14.321831      467.944   -502.44586            0   -10.893636            0            0            0            0            0            0 
10202000    659.21547    47911.643    332.33008   -511.89947    506.20316   -5.6963095    454.92534   -511.89947            0   -10.930319            0            0            0            0            0            0 
10203000    689.28997    49437.943    330.59125   -492.25764    503.55458    11.296943    508.27617   -492.25764            0   -10.592867            0            0            0            0            0            0 
10204000    695.70206    49477.871    355.68135   -490.37176    541.77168    51.399919    553.40739   -490.37176            0   -10.584319            0            0            0            0            0            0 
10205000    576.79801    50076.818    363.37492   -495.95163    553.49048    57.538851    478.78542   -495.95163            0   -10.457724            0            0            0            0            0            0 
10206000    648.17716    48166.293    335.71653    -510.1511    511.36139    1.2102875     456.5262    -510.1511            0   -10.872532            0            0            0            0            0            0 
10207000    516.12918     50268.66    348.79268    -496.3401    531.27889     34.93879    413.32178    -496.3401            0   -10.417814            0            0            0            0            0            0 
10208000     732.3887    49760.922    331.99517   -471.55929    505.69304    34.133743    565.63701   -471.55929            0   -10.524113            0            0            0            0            0            0 
10209000    736.71155    47518.471    333.68874   -511.95529    508.27267   -3.6826238    506.86449   -511.95529            0   -11.020758            0            0            0            0            0            0 
10210000    854.95617    48170.967    333.38137   -485.50979    507.80447    22.294685    622.92204   -485.50979            0   -10.871477            0            0            0            0            0            0 
10211000    665.26687    47002.044    312.00822   -519.60044    475.24903   -44.351411    411.67345   -519.60044            0   -11.141846            0            0            0            0            0            0 
10212000    562.87324    49697.417    346.85426   -497.86562    528.32631    30.460693    438.42326   -497.86562            0   -10.537561            0            0            0            0            0            0 
10213000    614.94966    48349.631    333.20851   -513.80739    507.54118    -6.266212     427.3531   -513.80739            0   -10.831304            0            0            0            0            0            0 
10214000    857.46667    47961.072    344.06231   -496.67077    524.07362    27.402856     627.1691   -496.67077            0   -10.919054            0            0            0            0            0            0 
10215000    737.62031    49171.865    376.04645   -493.65667    572.79167    79.134995    608.09817   -493.65667            0   -10.650187            0            0            0            0            0            0 
10216000    722.64319    48698.198    348.80025   -503.36589    531.29043    27.924535    541.15532   -503.36589            0   -10.753777            0            0            0            0            0            0 
10217000    580.32131    49509.309    340.53934   -509.02993    518.70746    9.6775242    428.69417   -509.02993            0   -10.577597            0            0            0            0            0            0 
10218000    770.30442    47714.199    322.01673    -504.1292    490.49393   -13.635274     522.3908    -504.1292            0   -10.975549            0            0            0            0            0            0 
10219000    691.95652    47647.935    325.10878   -511.11315    495.20372   -15.909422    464.92858   -511.11315            0   -10.990813            0            0            0            0            0            0 
10220000    566.76792    51192.366    342.69601   -487.37771    521.99249    34.614773    457.75698   -487.37771            0   -10.229837            0            0            0            0            0            0 
10221000    739.61397    48166.374    330.14978   -498.55854    502.88214    4.3235972    523.87073   -498.55854            0   -10.872513            0            0            0            0            0            0 
10222000    632.69221    49477.622    346.30463   -501.05878    527.48911    26.430332    482.96861   -501.05878            0   -10.584372            0            0            0            0            0            0 
10223000    731.17242    47796.127    341.32854   -512.67664    519.90957    7.2329322    516.90214   -512.67664            0   -10.956736            0            0            0            0            0            0 
10224000    851.28438    48221.607     358.5368   -502.58237    546.12108    43.538718    642.21525   -502.58237            0    -10.86006            0            0            0            0            0            0 
10225000    702.90324    50201.011    354.21323    -479.3123    539.53544    60.223135    574.83986    -479.3123            0   -10.431853            0            0            0            0            0            0 
10226000    707.76603    50263.147    333.95011   -471.86559    508.67078    36.805194    555.62349   -471.86559            0   -10.418957            0            0            0            0            0            0 
10227000    779.10105    47336.533    352.12233   -509.79445    536.35059    26.556139    564.41227   -509.79445            0   -11.063116            0            0            0            0            0            0 
10228000    551.64271    52271.423    343.52729    -470.4807    523.25868    52.777979    473.30906    -470.4807            0   -10.018659            0            0            0            0            0            0 
10229000    675.35967    48198.999    319.99745   -500.33247    487.41817   -12.914307    461.81826   -500.33247            0   -10.865154            0            0            0            0            0            0 
10230000    660.08033    50507.252    349.04511   -484.69479    531.66339    46.968603    533.18144   -484.69479            0   -10.368601            0            0            0            0            0            0 
10231000    918.31685    48633.748     357.9248   -489.08922    545.18889    56.099666    707.43732   -489.08922            0   -10.768028            0            0            0            0            0            0 
10232000    716.83919    49865.961    373.15835   -484.10701    568.39253    84.285521    605.60245   -484.10701            0   -10.501944            0            0            0            0            0            0 
10233000    864.18655    47256.443     323.5369   -502.67475    492.80944   -9.8653103    585.72061   -502.67475            0   -11.081865            0            0            0            0            0            0 
10234000    648.59987    49786.065    336.62959   -488.17387    512.75215    24.578279    495.51282   -488.17387            0   -10.518798            0            0            0            0            0            0 
10235000    623.47234      49272.9    335.74775   -494.02911    511.40894    17.379835    465.40376   -494.02911            0   -10.628348            0            0            0            0            0            0 
10236000     807.2799    48893.304    339.82101   -480.00785     517.6133    37.605452     613.2434   -480.00785            0   -10.710864            0            0            0            0            0            0 
10237000    562.41247    48729.073    320.13763    -506.8955    487.63169   -19.263809    380.42223    -506.8955            0   -10.746963            0            0            0            0            0            0 
10238000    545.57334    50281.595    341.92553   -495.62825    520.81889    25.190645    425.26256   -495.62825            0   -10.415134            0            0            0            0            0            0 
10239000     571.8917    47372.053    339.18239   -531.93415    516.64056   -15.293585    379.81084   -531.93415            0   -11.054821            0            0            0            0            0            0 
10240000    601.21676    52182.814    360.16528    -469.9049    548.60156    78.696665    536.24235    -469.9049            0   -10.035671            0            0            0            0            0            0 
10241000    846.49593    48331.879    342.14089   -486.37409    521.14692    34.772837    631.44316   -486.37409            0   -10.835282            0            0            0            0            0            0 
10242000    807.28016    48181.084    360.77247   -500.63345    549.52644    48.892993    616.14591   -500.63345            0   -10.869194            0            0            0            0            0            0 
10243000    775.41266    49253.112    334.88975   -475.28892    510.10204    34.813119    591.79677   -475.28892            0   -10.632618            0            0            0            0            0            0 
10244000    792.68506    48351.821    357.14891   -492.94699    544.00705    51.060062    610.03123   -492.94699            0   -10.830813            0            0            0            0            0            0 
10245000    735.30096    48072.039    352.04711   -509.83543    536.23602    26.400591    541.90641   -509.83543            0   -10.893849            0            0            0            0            0            0 
10246000     738.1801    50278.096    315.43864   -467.36375    480.47422    13.110463    554.38431   -467.36375            0   -10.415859            0            0            0            0            0            0 
10247000    833.37874    46447.073    332.54125   -520.76494    506.52482   -14.240119    550.27641   -520.76494            0   -11.274974            0            0            0            0            0            0 
10248000    675.92805    51039.141    341.51162   -474.06523    520.18843    46.123209    549.25263   -474.06523            0   -10.260548            0            0            0            0            0            0 
10249000    753.69996    48365.758    335.38711   -502.30575    510.85962    8.5538651    540.18741   -502.30575            0   -10.827692            0            0            0            0            0            0 
10250000      794.992    47532.813    366.10611    -508.4001     557.6506    49.250501    600.35273    -508.4001            0   -11.017432            0            0            0            0            0            0 
10251000     737.4833    49678.059    338.20091   -486.29082    515.14557    28.854747    563.16401   -486.29082            0   -10.541667            0            0            0            0            0            0 
10252000    565.19997    48348.503    341.68419   -518.91132    520.45128    1.5399621    400.06999   -518.91132            0   -10.831557            0            0            0            0            0            0 
10253000    663.30449     48046.78    340.43108   -512.77315    518.54256    5.7694077    470.55549   -512.77315            0   -10.899576            0            0            0            0            0            0 
10254000    668.03802    49734.162     345.9813   -480.55345    526.99661     46.44316    530.98565   -480.55345            0   -10.529775            0            0            0            0            0            0 
10255000    583.56209    48100.914    335.45967   -520.94674    510.97013   -9.9766082    399.39366   -520.94674            0    -10.88731            0            0            0            0            0            0 
10256000    691.31859    48845.317     350.7603   -505.24687    534.27596    29.029088      521.496   -505.24687            0   -10.721387            0            0            0            0            0            0 
10257000    613.02812    49876.266     346.6459   -491.58756    528.00894    36.421375    482.33446   -491.58756            0   -10.499774            0            0            0            0            0            0 
10258000    771.29403    47780.121    349.63676    -499.5899    532.56459     32.97469    570.43092    -499.5899            0   -10.960407            0            0            0            0            0            0 
10259000    803.06063    48815.531    335.93378   -488.12883    511.69229    23.563464    595.28196   -488.12883            0   -10.727929            0            0            0            0            0            0 
10260000    737.83606    48950.003    339.80212   -491.69522    517.58453    25.889317    552.61984   -491.69522            0   -10.698458            0            0            0            0            0            0 
10261000    565.70268    50953.112     328.1701   -480.58652     499.8667    19.280185     439.6532   -480.58652            0   -10.277872            0            0            0            0            0            0 
10262000     741.6484    49026.036    327.10788   -486.65357    498.24874    11.595173    541.86965   -486.65357            0   -10.681866            0            0            0            0            0            0 
10263000    730.03263    46481.687    323.18433    -522.9213    492.27241   -30.648889    464.23127    -522.9213            0   -11.266578            0            0            0            0            0            0 
10264000     638.6474    49549.319    321.68304   -497.17948    489.98565   -7.1938317    454.30938   -497.17948            0   -10.569056            0            0            0            0            0            0 
10265000     639.8794    48439.817    330.16083   -511.40659    502.89897   -8.5076251      443.532   -511.40659            0   -10.811138            0            0            0            0            0            0 
10266000    755.20475    50021.136    362.21271   -471.81954     551.7202    79.900659    630.82778   -471.81954            0   -10.469365            0            0            0            0            0            0 
10267000    624.14418    50423.121    325.96056   -474.51429    496.50116    21.986868    480.96347   -474.51429            0   -10.385901            0            0            0            0            0            0 
10268000    692.16972    49078.203    346.87182   -497.26882    528.35305    31.084232    526.50835   -497.26882            0   -10.670512            0            0            0            0            0            0 
10269000    644.79256    49600.647    312.69055   -485.19984    476.28834   -8.9114997    457.51504   -485.19984            0   -10.558119            0            0            0            0            0            0 
10270000    599.05917    48245.479    335.95215   -517.78778    511.72028    -6.067505    415.43702   -517.78778            0   -10.854686            0            0            0            0            0            0 
10271000    522.72526    49920.886    339.94819   -507.76103    517.80703    10.046002    390.61346   -507.76103            0    -10.49039            0            0            0            0            0            0 
10272000    783.26788    48293.742    346.17641   -497.63634     527.2938    29.657458    581.32453   -497.63634            0   -10.843839            0            0            0            0            0            0 
10273000     600.0365    50076.954    340.66205   -489.47802    518.89437    29.416356    467.63561   -489.47802            0   -10.457696            0            0            0            0            0            0 
10274000    592.29491     48411.38     344.7999   -517.44777    525.19712    7.7493468    425.92751   -517.44777            0   -10.817489            0            0            0            0            0            0 
10275000    805.62221    48879.926    345.96757   -486.18435     526.9757    40.791353    615.09009   -486.18435            0   -10.713796            0            0            0            0            0            0 
10276000    779.58342    48412.569    349.08929   -495.16637     531.7307     36.56433    586.98737   -495.16637            0   -10.817223            0            0            0            0            0            0 
10277000    669.86506    48333.509    369.54951   -514.12331    562.89557    48.772263    520.95656   -514.12331            0   -10.834917            0            0            0            0            0            0 
10278000    666.44918    48822.619    329.74786   -501.61151    502.26995   0.65843202    475.18879   -501.61151            0   -10.726371            0            0            0            0            0            0 
10279000    614.64901    49602.869    326.85734   -497.15327    497.86711   0.71384128    445.35521   -497.15327            0   -10.557646            0            0            0            0            0            0 
10280000    746.43229    49212.264    335.90273     -490.039    511.64501    21.606006    557.32822     -490.039            0   -10.641444            0            0            0            0            0            0 
10281000    675.46659    48897.316    331.03768   -499.40198    504.23459    4.8326104    486.51945   -499.40198            0   -10.709985            0            0            0            0            0            0 
10282000    817.98399    47670.536    343.76765   -499.36264     523.6248    24.262169     592.9458   -499.36264            0   -10.985602            0            0            0            0            0            0 
10283000    610.55507    50276.935    347.23569   -494.72507    528.90729    34.182219    481.86411   -494.72507            0   -10.416099            0            0            0            0            0            0 
10284000    638.52162    49045.741    346.96762   -503.29078    528.49898    25.208203    481.93111   -503.29078            0   -10.677574            0            0            0            0            0            0 
10285000    733.85122    48106.579    345.82583   -506.49553    526.75981    20.264273    535.12336   -506.49553            0   -10.886028            0            0            0            0            0            0 
10286000    775.07659    47757.923    346.61754   -510.89849    527.96574    17.067249    556.90834   -510.89849            0   -10.965501            0            0            0            0            0            0 
10287000    727.97818    48432.808    342.97018   -493.40574     522.4101    29.004356    543.20651   -493.40574            0   -10.812703            0            0            0            0            0            0 
10288000    564.91786     50573.92    333.79148   -491.10319    508.42915    17.325958    433.99171   -491.10319            0   -10.354933            0            0            0            0            0            0 
10289000    769.15019    47149.377    340.03064   -522.84018    517.93261   -4.9075678    523.97956   -522.84018            0    -11.10703            0            0            0            0            0            0 
10290000    672.30848    49161.761    324.64663   -492.65418    494.49978    1.8456009     483.8732   -492.65418            0   -10.652376            0            0            0            0            0            0 
10291000    680.15319    49873.518    334.51769   -487.63378    509.53531    21.901532    516.61374   -487.63378            0   -10.500353            0            0            0            0            0            0 
10292000    680.92697    47410.136    365.43432   -520.22069    556.62734    36.406651    507.21876   -520.22069            0   -11.045941            0            0            0            0            0            0 
10293000    615.02898    50454.182    342.10916   -483.52991     521.0986    37.568688    490.12085   -483.52991            0   -10.379507            0            0            0            0            0            0 
10294000    889.80462     47533.22    339.45768    -498.0578    517.05988    19.002084    635.83534    -498.0578            0   -11.017338            0            0            0            0            0            0 
10295000    731.48788    48807.361    325.69864   -481.49145    496.10219    14.610737    535.28768   -481.49145            0   -10.729725            0            0            0            0            0            0 
10296000    719.02921    47986.658    335.63473   -510.37254    511.23679    0.8642474    504.06691   -510.37254            0   -10.913232            0            0            0            0            0            0 
10297000    633.57298    50061.781    320.62721   -481.67126    488.37742    6.7061589    469.27762   -481.67126            0   -10.460865            0            0            0            0            0            0 
10298000    713.36152    50636.988    349.25425     -473.486    531.98196     58.49596    585.30526     -473.486            0   -10.342036            0            0            0            0            0            0 
10299000    449.65951    49292.517    341.35173   -519.30481    519.94488   0.64007103    323.89166   -519.30481            0   -10.624119            0            0            0            0            0            0 
10300000    682.23404    49167.408    335.30134   -495.78988    510.72896    14.939084    504.13924   -495.78988            0   -10.651152            0            0            0            0            0            0 
10301000    773.49138    48080.097    345.80734   -504.48974    526.73164    22.241899     564.6132   -504.48974            0   -10.892023            0            0            0            0            0            0 
10302000     668.2354    48814.162    342.06492   -507.26504    521.03122    13.766177    489.48596   -507.26504            0    -10.72823            0            0            0            0            0            0 
10303000    671.41521    47028.372    346.92881   -526.71232    528.43986    1.7275397    462.22476   -526.71232            0   -11.135609            0            0            0            0            0            0 
10304000    648.28625    50654.734    356.22537   -489.11805    542.60032     53.48227    532.40201   -489.11805            0   -10.338413            0            0            0            0            0            0 
10305000    682.60002    48389.637    355.99707   -501.09993    542.25258    41.152648    522.87251   -501.09993            0   -10.822349            0            0            0            0            0            0 
10306000    741.86083    48351.553    339.95917   -497.88404    517.82374    19.939703    543.06865   -497.88404            0   -10.830873            0            0            0            0            0            0 
10307000    579.52521    48485.865    342.16466     -511.448    521.18314     9.735141    419.52705     -511.448            0    -10.80087            0            0            0            0            0            0 
10308000    623.60216    49117.826    350.06612   -500.33452     533.2186    32.884076    479.59095   -500.33452            0   -10.661904            0            0            0            0            0            0 
10309000    550.82487    47421.999    343.35705   -526.07206    522.99938   -3.0726763    377.87848   -526.07206            0   -11.043177            0            0            0            0            0            0 
10310000    637.65567    48290.219    328.73926   -515.09775    500.73365   -14.364101     434.7134   -515.09775            0    -10.84463            0            0            0            0            0            0 
10311000    746.55643    49220.261    345.25671   -490.35342    525.89293    35.539509    571.43789   -490.35342            0   -10.639715            0            0            0            0            0            0 
10312000    687.42985    49456.733    361.08177   -490.17502    549.99757     59.82255    555.64901   -490.17502            0   -10.588842            0            0            0            0            0            0 
10313000    692.25409    47084.029    314.86462   -517.33673    479.59989   -37.736841    437.61485   -517.33673            0   -11.122446            0            0            0            0            0            0 
10314000    651.96345     48525.98    350.65556   -512.76684    534.11642    21.349576    482.74518   -512.76684            0   -10.791942            0            0            0            0            0            0 
10315000    510.50027     50061.16    335.97664   -504.67544    511.75758    7.0821472    379.79363   -504.67544            0   -10.460995            0            0            0            0            0            0 
10316000    675.63629    50108.785    336.48132   -473.17273    512.52631    39.353583    533.09861   -473.17273            0   -10.451052            0            0            0            0            0            0 
10317000    527.37089    50390.725     336.9399   -495.87544    513.22481    17.349377    404.91268   -495.87544            0   -10.392578            0            0            0            0            0            0 
10318000    646.82572    48905.748    358.60561   -499.61996    546.22589    46.605926    507.94802   -499.61996            0   -10.708139            0            0            0            0            0            0 
10319000    711.61706      48922.2    335.63108   -493.07638    511.23122     18.15484    525.87945   -493.07638            0   -10.704538            0            0            0            0            0            0 
10320000    827.13372    47121.686    348.93131   -512.46363    531.49005    19.026418    587.45046   -512.46363            0   -11.113557            0            0            0            0            0            0 
10321000    610.20513    50752.835    325.38591   -474.98753    495.62584    20.638315    472.29875   -474.98753            0   -10.318429            0            0            0            0            0            0 
10322000    581.29269    48672.479    336.46574   -512.01016    512.50257   0.49241037    413.11616   -512.01016            0   -10.759459            0            0            0            0            0            0 
10323000    786.58986    48171.088    325.99989   -506.42427    496.56105   -9.8632226    542.73653   -506.42427            0   -10.871449            0            0            0            0            0            0 
10324000     739.3715    48104.369    344.45449   -504.74735    524.67098    19.923633    538.63184   -504.74735            0   -10.886528            0            0            0            0            0            0 
10325000    618.12835    50315.301    347.66578   -487.47072    529.56241    42.091688    495.67245   -487.47072            0   -10.408157            0            0            0            0            0            0 
10326000    759.40553    47878.549    344.27321   -509.14931    524.39487    15.245564    545.50771   -509.14931            0   -10.937874            0            0            0            0            0            0 
10327000    573.51725    50570.731    347.89914   -490.11118    529.91786    39.806682    462.78841   -490.11118            0   -10.355586            0            0            0            0            0            0 
10328000    638.25292    47567.646    344.43181   -523.22238    524.63645    1.4140715    444.18629   -523.22238            0   -11.009364            0            0            0            0            0            0 
10329000    645.26116    50284.852    341.05283   -481.96565     519.4896    37.523957    510.72816   -481.96565            0   -10.414459            0            0            0            0            0            0 
10330000    664.64648    49457.592    348.37861   -493.98352    530.64818     36.66466    516.06636   -493.98352            0   -10.588658            0            0            0            0            0            0 
10331000    724.08855    49928.441    331.33419   -484.24989    504.68622    20.436336    547.68511   -484.24989            0   -10.488802            0            0            0            0            0            0 
10332000    658.08195     48353.85    347.75166    -505.2903    529.69322    24.402915    488.47659    -505.2903            0   -10.830359            0            0            0            0            0            0 
10333000      666.198     48836.49    348.98253   -500.54774    531.56807    31.020328     505.5066   -500.54774            0   -10.723325            0            0            0            0            0            0 
10334000    682.46013     49572.89    335.75203   -485.18796    511.41545    26.227495    519.62553   -485.18796            0   -10.564031            0            0            0            0            0            0 
10335000    703.00049    49391.759    347.29691   -491.34827    529.00055    37.652283    544.04332   -491.34827            0   -10.602772            0            0            0            0            0            0 
10336000    725.87037    47516.822     345.8452   -511.89499     526.7893    14.894312    517.91094   -511.89499            0    -11.02114            0            0            0            0            0            0 
10337000     753.8825    49190.889    343.50263    -484.3432    523.22112     38.87792    579.71222    -484.3432            0   -10.646068            0            0            0            0            0            0 
10338000    548.15493    50853.242    350.18673   -486.12105     533.4023    47.281242    453.81617   -486.12105            0   -10.298056            0            0            0            0            0            0 
10339000    556.67088    49116.636     348.1361   -510.24462    530.27879    20.034169     418.7863   -510.24462            0   -10.662162            0            0            0            0            0            0 
10340000    581.76753    49370.218    338.03387   -505.86451    514.89113    9.0266248    427.90739   -505.86451            0   -10.607398            0            0            0            0            0            0 
10341000    588.60217    47792.462     345.3739   -518.94968    526.07143    7.1217451    417.37983   -518.94968            0   -10.957576            0            0            0            0            0            0 
10342000     656.7252    47454.087    343.23447   -523.09416    522.81267  -0.28148708    454.21779   -523.09416            0    -11.03571            0            0            0            0            0            0 
10343000    592.37427    50464.112    331.12493   -487.54419    504.36749    16.823296     452.7914   -487.54419            0   -10.377465            0            0            0            0            0            0 
10344000    742.06086    47844.286    338.27887   -508.03809    515.26432    7.2262298    525.00649   -508.03809            0   -10.945707            0            0            0            0            0            0 
10345000    625.57218    51160.458    341.92918   -473.74827    520.82446     47.07619    513.82986   -473.74827            0   -10.236217            0            0            0            0            0            0 
10346000    637.55025    48718.228    332.00095    -509.8306    505.70183   -4.1287781    448.85411    -509.8306            0   -10.749355            0            0            0            0            0            0 
10347000    571.32468    50532.509    312.49479    -488.1002    475.99017   -12.110032    408.93615    -488.1002            0   -10.363419            0            0            0            0            0            0 
10348000    631.26449    48885.906    333.19056   -497.57399    507.51384    9.9398542    460.00037   -497.57399            0   -10.712485            0            0            0            0            0            0 
10349000    709.24509    47818.838    357.78227   -516.16519    544.97178    28.806596    523.42611   -516.16519            0   -10.951532            0            0            0            0            0            0 
10350000    556.55083    50154.438    333.63239   -488.87519    508.18683    19.311642    426.40132   -488.87519            0   -10.441539            0            0            0            0            0            0 
10351000    603.33001    49354.458    340.02771   -501.50591    517.92815    16.422241    450.68962   -501.50591            0   -10.610785            0            0            0            0            0            0 
10352000    564.48367    49226.667    324.89968    -511.1299    494.88522   -16.244684    389.00968    -511.1299            0    -10.63833            0            0            0            0            0            0 
10353000     609.8144    49235.897    337.56953   -502.48218    514.18386    11.701681      449.582   -502.48218            0   -10.636336            0            0            0            0            0            0 
[...]
14939000    690.00965    50256.838     333.6241   -479.79426    508.17421    28.379955    534.11869   -479.79426            0   -10.420264            0            0            0            0            0            0 
14940000    735.40599      48547.6    345.05565   -503.94758    525.58667    21.639093      542.319   -503.94758            0   -10.787136            0            0            0            0            0            0 
14941000    693.91923     48213.14    349.31342   -504.37751    532.07208    27.694572    515.61637   -504.37751            0   -10.861967            0            0            0            0            0            0 
14942000    678.42115    50281.448    337.70186   -478.71246    514.38543    35.672971    533.16147   -478.71246            0   -10.415164            0            0            0            0            0            0 
14943000    815.90841    46175.815    332.21315   -520.39673    506.02506   -14.371677      535.083   -520.39673            0   -11.341208            0            0            0            0            0            0 
14944000    827.28198    48271.075    342.05325   -494.01885    521.01344    26.994584    609.38795   -494.01885            0   -10.848931            0            0            0            0            0            0 
14945000    579.37385    47989.432    327.82771   -520.93925    499.34518   -21.594072    383.89615   -520.93925            0   -10.912601            0            0            0            0            0            0 
14946000    741.76286    48249.302    353.46939   -507.36026    538.40243     31.04217     552.9959   -507.36026            0   -10.853826            0            0            0            0            0            0 
14947000     712.0958    49865.232    330.96216   -475.97533    504.11956    28.144229    546.00399   -475.97533            0   -10.502098            0            0            0            0            0            0 
14948000    847.79723    47687.998    346.39639   -494.72685    527.62888    32.902026     622.5285   -494.72685            0    -10.98158            0            0            0            0            0            0 
14949000    839.10709    48311.932    349.60257   -493.17844    532.51252    39.334076    630.55213   -493.17844            0   -10.839756            0            0            0            0            0            0 
14950000    752.73537    49324.243    342.73855   -485.06797    522.05729    36.989316    578.46461   -485.06797            0   -10.617285            0            0            0            0            0            0 
14951000    740.08988    48974.955    335.21513   -492.43527    510.59766     18.16239    546.77121   -492.43527            0   -10.693007            0            0            0            0            0            0 
14952000    810.25099    47515.878    326.56831   -502.98285    497.42687    -5.555977    555.92393   -502.98285            0   -11.021359            0            0            0            0            0            0 
14953000    649.93654    50583.351    349.71258   -480.43188    532.68008    52.248199    531.71047   -480.43188            0   -10.353002            0            0            0            0            0            0 
14954000    652.79544    48190.887    358.09488   -511.06667    545.44795    34.381279    493.17548   -511.06667            0   -10.866983            0            0            0            0            0            0 
14955000    579.14346     49289.29    339.61947   -505.19522    517.30631    12.111091    428.41894   -505.19522            0   -10.624814            0            0            0            0            0            0 
14956000    679.05096    47890.011    340.53345   -511.33787    518.69849    7.3606164    481.62793   -511.33787            0   -10.935256            0            0            0            0            0            0 
14957000    708.53874    49243.894    365.93582   -494.06824    557.39122    63.322977    572.17543   -494.06824            0   -10.634609            0            0            0            0            0            0 
14958000    755.58265    50184.195    326.00821    -467.9693    496.57373    28.604425    581.60404    -467.9693            0   -10.435348            0            0            0            0            0            0 
14959000    621.78566    48097.018     335.9285   -525.16527    511.68426   -13.481009    422.66786   -525.16527            0   -10.888191            0            0            0            0            0            0 
14960000    712.71269    48520.659    337.89863   -496.43902    514.68515    18.246127    522.57876   -496.43902            0   -10.793125            0            0            0            0            0            0 
14961000    766.47394    50426.514    363.67509   -474.63281    553.94769    79.314878    642.99437   -474.63281            0   -10.385202            0            0            0            0            0            0 
14962000    639.73993    51167.044    361.10977   -476.18455    550.04021    73.855658    551.24165   -476.18455            0   -10.234899            0            0            0            0            0            0 
14963000     526.9732    48492.309    327.29309   -520.68277    498.53085   -22.151919    350.52911   -520.68277            0   -10.799435            0            0            0            0            0            0 
14964000    632.53077    50038.485     335.4723   -483.54892    510.98938    27.440455    489.03609   -483.54892            0   -10.465735            0            0            0            0            0            0 
14965000    780.88796    47254.573     359.1788   -513.97712    547.09897    33.121853     571.2782   -513.97712            0   -11.082304            0            0            0            0            0            0 
14966000    659.65681    49230.921    323.88118   -489.59615    493.33385    3.7376964    477.35974   -489.59615            0   -10.637411            0            0            0            0            0            0 
14967000    612.05195    50578.198     335.5839   -490.83574    511.15936    20.323624     471.7922   -490.83574            0   -10.354057            0            0            0            0            0            0 
14968000    682.69514    48013.694    353.12164   -517.85402    537.87275     20.01873    498.06268   -517.85402            0   -10.907087            0            0            0            0            0            0 
14969000    640.93915    52104.228    337.62686   -462.13972    514.27118    52.131462    539.17261   -462.13972            0   -10.050807            0            0            0            0            0            0 
14970000    709.80016    47516.366    346.34612    -513.0285     527.5523    14.523803    506.39931    -513.0285            0   -11.021246            0            0            0            0            0            0 
14971000    591.13548    51417.128    330.71741   -476.79403    503.74675    26.952727    470.22516   -476.79403            0   -10.185119            0            0            0            0            0            0 
14972000    623.37558    49595.133    340.40945   -497.32207     518.5096    21.187538    472.07145   -497.32207            0   -10.559293            0            0            0            0            0            0 
14973000    740.82992    46870.023    349.03316   -517.26909    531.64519    14.376102    520.77129   -517.26909            0    -11.17323            0            0            0            0            0            0 
14974000    691.81223    49323.708    356.40771   -495.79498    542.87806     47.08308    544.72831   -495.79498            0     -10.6174            0            0            0            0            0            0 
14975000    727.25894     47647.53    324.66455   -514.00242    494.52708   -19.475345    485.88988   -514.00242            0   -10.990906            0            0            0            0            0            0 
14976000    740.42038    50060.881    358.23905   -478.88598    545.66755    66.781571    607.35257   -478.88598            0   -10.461053            0            0            0            0            0            0 
14977000    688.58865        49154     339.3203   -492.19493    516.85062    24.655698    518.27782   -492.19493            0   -10.654058            0            0            0            0            0            0 
14978000    654.43673    51289.942    332.87073   -466.82329    507.02668    40.203387    529.72939   -466.82329            0   -10.210375            0            0            0            0            0            0 
14979000    791.39491    47831.301    349.09968   -506.29719    531.74651    25.449316    577.50302   -506.29719            0   -10.948679            0            0            0            0            0            0 
14980000    602.07788    50125.955    329.22095   -483.02345    501.46735    18.443898    458.58429   -483.02345            0   -10.447473            0            0            0            0            0            0 
14981000    594.49627     48717.95     334.9287   -516.21418    510.16136   -6.0528191    416.33757   -516.21418            0   -10.749417            0            0            0            0            0            0 
14982000    777.57856    47997.542    352.83233   -505.71687    537.43206    31.715193    576.01624   -505.71687            0   -10.910758            0            0            0            0            0            0 
14983000    662.74782    49923.963    344.18168   -490.02929    524.25545    34.226166    516.76609   -490.02929            0   -10.489743            0            0            0            0            0            0 
14984000     651.1805    48734.497    325.97521   -502.50894    496.52347   -5.9854737    456.83628   -502.50894            0   -10.745767            0            0            0            0            0            0 
14985000    830.28163    47442.557    349.04666   -498.89398    531.66576    32.771779     607.2445   -498.89398            0   -11.038392            0            0            0            0            0            0 
14986000    794.95275     48567.91    353.71377    -495.2693    538.77466     43.50536    606.58084    -495.2693            0   -10.782625            0            0            0            0            0            0 
14987000     713.3759    49379.768    339.19221   -486.97989    516.65552    29.675631    543.41561   -486.97989            0   -10.605346            0            0            0            0            0            0 
14988000    846.07217     48611.88     348.4567   -489.48692    530.76713    41.280206     641.1068   -489.48692            0   -10.772872            0            0            0            0            0            0 
14989000    703.91704    47975.776     363.4461    -515.6663     553.5989    37.932598     530.4475    -515.6663            0   -10.915708            0            0            0            0            0            0 
14990000     653.7158    50224.301    340.42006   -485.71592    518.52577    32.809855    511.63701   -485.71592            0   -10.427015            0            0            0            0            0            0 
14991000    739.71399    48930.689    340.20709   -492.58164    518.20138     25.61974    553.48253   -492.58164            0   -10.702681            0            0            0            0            0            0 
14992000    664.88647    48469.753    338.61515   -502.80041    515.77654    12.976129    482.97216   -502.80041            0   -10.804461            0            0            0            0            0            0 
14993000    789.14058    48728.279     353.0527   -493.50855    537.76773    44.259179    605.06349   -493.50855            0   -10.747138            0            0            0            0            0            0 
14994000     848.4412    48319.659    349.69689   -494.37445    532.65618    38.281734    636.17202   -494.37445            0   -10.838022            0            0            0            0            0            0 
14995000    631.26407    48859.456    334.00923   -506.97207    508.76083    1.7887683    451.60548   -506.97207            0   -10.718284            0            0            0            0            0            0 
14996000    673.17944    49683.915    335.11805   -490.71099    510.44979    19.738798    507.51718   -490.71099            0   -10.540424            0            0            0            0            0            0 
14997000    726.30863    51569.771     362.0454   -463.13272    551.46536    88.332638     634.5837   -463.13272            0   -10.154971            0            0            0            0            0            0 
14998000    747.19689    48252.392    325.44211   -488.25488    495.71145    7.4565688    533.26772   -488.25488            0   -10.853131            0            0            0            0            0            0 
14999000    658.53139    49091.201    327.18056   -500.66892    498.35944   -2.3094827    469.16265   -500.66892            0   -10.667687            0            0            0            0            0            0 
15000000    792.04797    47734.867    347.74665   -504.07798     529.6856    25.607615    577.00296   -504.07798            0   -10.970797            0            0            0            0            0            0 
Loop time of 1698.91 on 8 procs for 5000000 steps with 512 atoms

Pair  time (%) = 948.539 (55.8323)
Bond  time (%) = 0.483006 (0.0284304)
Neigh time (%) = 34.2757 (2.01751)
Comm  time (%) = 547.915 (32.251)
Outpt time (%) = 0.259313 (0.0152635)
Other time (%) = 167.437 (9.85555)

Nlocal:    64 ave 71 max 57 min
Histogram: 1 0 1 1 1 1 1 1 0 1
Nghost:    1437.5 ave 1461 max 1424 min
Histogram: 2 1 2 1 0 0 0 0 1 1
Neighs:    6934 ave 7866 max 6330 min
Histogram: 1 1 3 0 0 1 1 0 0 1

Total # of neighbors = 55472
Ave neighs/atom = 108.344
Ave special neighs/atom = 0
Neighbor list builds = 85121
Dangerous builds = 0

Averages
Group Pressure(MPa) Volume(m3) Temperature(K) PE(J) KE(J) ET(J) ET^2(J) H(J) H^2(J^2) V^2(m6) V*H(m3*J) Hconf(J) Uext*Hconf(J^2) V*Hconf(m3*J) Uext(J)
Block1 69.46327001305925819 4.8919729925234522077e-26 339.60740312440356092 -3.4643981926878773483e-18 3.5939587329389724146e-18 1.2956054025109261068e-19 3.9923094231091996205e-38 3.5232036737121876891e-18 1.2628261714072462541e-35 2.3943725309446169541e-51 1.7229780111344933533e-43 -7.0755059226781210641e-20 2.6445626742068341192e-37 -3.5135658791434186773e-45 -3.4643981926878773483e-18
Block2 70.469793606814604914 4.885527072277047263e-26 340.39520029717539273 -3.462883582813947073e-18 3.6022957435660094745e-18 1.39412160752058646e-19 4.4974070694305502038e-38 3.5774429430203839618e-18 1.3036801845981572235e-35 2.3880743863037279563e-51 1.7470689803815619187e-43 -2.4852800545625428515e-20 1.0608144628507197977e-37 -1.2800906942860963894e-45 -3.462883582813947073e-18
Block3 70.239369086625458749 4.8870877008198195984e-26 340.00766540402491955 -3.4645287253106063293e-18 3.5981945832239621389e-18 1.3366585791336459661e-19 4.4306551129976964908e-38 3.5614036596573344317e-18 1.2932140224004566727e-35 2.3897039280487054196e-51 1.7398884773900932075e-43 -3.6790923566639154417e-20 1.4942115746496466838e-37 -1.8550902603969591265e-45 -3.4645287253106063293e-18
Block4 69.90247155432147963 4.8858958018834137177e-26 340.24981247717829547 -3.4688566885091980239e-18 3.6007571498235449297e-18 1.319004613143464002e-19 4.2573542857216408982e-38 3.5423215418737401802e-18 1.2766550364678082365e-35 2.3885302167539042446e-51 1.7301379681999076567e-43 -5.8435607949807337437e-20 2.2124219007476409662e-37 -2.9143372428469843324e-45 -3.4688566885091980239e-18
Block5 70.018987886762289463 4.8866060353055571356e-26 340.44254087565286682 -3.4677117099745932843e-18 3.6027967340740864795e-18 1.3508502409949967116e-19 4.4238696381727162282e-38 3.5523743211790345725e-18 1.2859541428357803493e-35 2.389173309234413532e-51 1.7355912814666341771e-43 -5.0422412895054952381e-20 1.9979261821486029637e-37 -2.4942802441218024161e-45 -3.4677117099745932843e-18
Ave_blocks 70.018778429516629558 4.8874179205618584436e-26 340.14052443568698436 -3.4656757798592441036e-18 3.5996005887253147793e-18 1.3392480886607238493e-19 4.3203191058863608971e-38 3.551349227888536167e-18 1.2844659115418895869e-35 2.38997087425707374e-51 1.735132943714537983e-43 -4.8251360836781615474e-20 1.8819873589206890314e-37 -2.4114728641590521572e-45 -3.4656757798592441036e-18
Stdev_blocks 0.33887810847022958871 2.3413259418617052607e-29 0.30655748409923821995 2.2364042001254772287e-21 3.2442017959261740613e-21 3.3066299840864701617e-21 1.8210536214413775447e-39 1.8202723524270634532e-20 1.3980133673012617064e-37 2.2695423519798587513e-54 8.2217554301750324953e-46 1.6085291689296266464e-20 5.529638130573441507e-38 7.8280596258362131232e-46 2.2364042001254772287e-21






Properties
Group rho(kg/m3) Cp(J/K) Cp_conf(J/K) Cp_id(J/K) Cp2(J/K) kT(1/Pa) aP(1/K) aP2(1/K) Cv(J/K) uJT(K/Pa) sos(m/s) Cv2(J/K) uJT2(K/Pa) sos2(m/s) CvNVT(J/K)
Block1 278.80845174381590823 1.3520776878879469292e-19 2.7928065524070336835e-21 3.1850806507187207118e-20 3.4643613059594242307e-20 5.3735572935100138807e-09 -0.00072366031596697848616 -0.00067072403752327174574 1.3358868684010043834e-19 -4.5073047870890807888e-07 821.92477870762547809 3.3252741400856465904e-20 -1.7337338705651201167e-06 833.89995982708285283 1.4530231857434042666e-20
Block2 279.17630909418500096 1.4921391383281533021e-19 2.542065094582129048e-21 3.188238238199608488e-20 3.4424447476578216937e-20 5.3871571636573484733e-09 -0.00089622769072123886856 -0.0008431920846141995312 1.4673436924364663903e-19 -4.2730349270154411594e-07 822.2798210420697842 3.2229681353137504095e-20 -1.8265402565414919884e-06 842.72597423695776797 1.5964019566326307811e-20
Block3 279.08715773388405523 1.5571949672610187186e-19 4.1761567581424481455e-21 3.1866836190637936763e-20 3.6042992948780386413e-20 5.8466435274326855236e-09 -0.00077013144290176156065 -0.00073183890811055567465 1.5403386795406159955e-19 -3.9601813823209326505e-07 787.11855630607124112 3.4520822748834604765e-20 -1.6932960701660462906e-06 799.9201196895302246 1.6565351021743318792e-20
Block4 279.15524016952241482 1.3670652525642047916e-19 1.9382283791495301601e-21 3.18765470469347798e-20 3.381477542608430996e-20 5.8052605561227677738e-09 -0.00077268309562384404968 -0.00075849068307721632855 1.3499681230862522364e-19 -4.5136277045222954321e-07 790.49497732427801111 3.2167292662780438506e-20 -1.8177940551525374181e-06 805.40115453487999275 1.5750866971863121572e-20
Block5 279.11466694137544664 1.5009373256836381849e-19 7.1907576398759042013e-21 3.1884283240325482303e-20 3.9075040880201386504e-20 5.579161385404677706e-09 -0.0004016866284227806126 -0.00038794843254294324175 1.4961260861882632912e-19 -3.7009242556143314027e-07 802.64109178583782978 3.8626264254302335903e-20 -1.4157375781819981568e-06 805.99542294058028347 1.6242304785718547224e-20
Ave_blocks 279.06836513655656518 1.4538828743449922408e-19 3.7280028848314087467e-21 3.187217107341630058e-20 3.5600173958247704813e-20 5.5983559852254988369e-09 -0.000712877834727320683 -0.00067843882917363736943 1.4379326899305205557e-19 -4.1910146113124160749e-07 804.89184503317642339 3.415936048398226502e-20 -1.6974203661214389212e-06 817.58852624580617885 1.5810554840617067011e-20
Stdev_blocks 0.13360476032766568921 8.0315187989128948576e-21 1.8802045522472874209e-21 1.2288451642075075164e-23 1.884451018989194915e-21 1.9998201507361555624e-10 0.00016578784235030176474 0.00015546555339817158341 8.1104352356913628255e-21 3.1759047584781678646e-08 14.971225877856515041 2.3915617565258604987e-21 1.4956112098836847792e-07 17.280386689469828809 6.9605549995930418969e-22






