LAMMPS (28 Oct 2012)
Scanning data file ...
Reading data file ...
  orthogonal box = (0 0 0) to (100 100 100)
  2 by 2 by 2 MPI processor grid
  512 atoms
Finding 1-2 1-3 1-4 neighbors ...
  0 = max # of 1-2 neighbors
  0 = max # of 1-3 neighbors
  0 = max # of 1-4 neighbors
  1 = max # of special neighbors
WARNING: Resetting reneighboring criteria during minimization (min.cpp:173)
Setting up minimization ...
Memory usage per processor = 4.05499 Mbytes
Step Temp E_pair E_mol TotEng Press 
       0       560.15    1409.7233            0    2262.9404    451.51896 
     701       560.15   -217.27527            0    635.94182    38.774061 
Loop time of 0.0563325 on 8 procs for 701 steps with 512 atoms

Minimization stats:
  Stopping criterion = energy tolerance
  Energy initial, next-to-last, final = 
         1409.72334813     -217.256630745     -217.275265106
  Force two-norm initial, final = 5034.49 0.337455
  Force max component initial, final = 2457.89 0.147661
  Final line search alpha, max atom move = 0.254892 0.0376377
  Iterations, force evaluations = 701 710

Pair  time (%) = 0.00896204 (15.9092)
Bond  time (%) = 5.65648e-05 (0.100412)
Neigh time (%) = 0.00314599 (5.58469)
Comm  time (%) = 0.0227989 (40.472)
Outpt time (%) = 0 (0)
Other time (%) = 0.021369 (37.9337)

Nlocal:    64 ave 74 max 52 min
Histogram: 1 0 0 1 1 2 0 2 0 1
Nghost:    235.125 ave 266 max 224 min
Histogram: 4 0 2 0 0 1 0 0 0 1
Neighs:    316.25 ave 371 max 226 min
Histogram: 1 0 0 1 1 1 0 1 0 3

Total # of neighbors = 2530
Ave neighs/atom = 4.94141
Ave special neighs/atom = 0
Neighbor list builds = 60
Dangerous builds = 0
Setting up run ...
Memory usage per processor = 3.36354 Mbytes
Step Temp E_pair E_mol TotEng Press Volume 
     701       560.15   -217.27527            0    635.94182    38.774061      1000000 
 5000701    535.96398   -286.99342            0    529.38367    697.62451    74426.412 
Loop time of 1228.24 on 8 procs for 5000000 steps with 512 atoms

Pair  time (%) = 629.427 (51.2461)
Bond  time (%) = 0.446332 (0.0363391)
Neigh time (%) = 32.7947 (2.67005)
Comm  time (%) = 404.971 (32.9715)
Outpt time (%) = 4.36902e-05 (3.55713e-06)
Other time (%) = 160.605 (13.076)

Nlocal:    64 ave 74 max 53 min
Histogram: 1 0 0 2 1 1 1 0 1 1
Nghost:    1085.38 ave 1134 max 1032 min
Histogram: 1 0 0 2 2 0 0 2 0 1
Neighs:    4434 ave 5224 max 3450 min
Histogram: 1 0 0 0 3 0 2 0 0 2

Total # of neighbors = 35472
Ave neighs/atom = 69.2812
Ave special neighs/atom = 0
Neighbor list builds = 109533
Dangerous builds = 6
Setting up run ...
Memory usage per processor = 3.93981 Mbytes
Step Press Volume Temp PotEng KinEng TotEng Enthalpy E_vdwl E_coul E_tail E_long E_bond E_angle E_dihed E_impro E_mol 
10000000    697.62451    74426.412    535.96398   -286.99342    816.37709    529.38367    1286.6083   -286.99342            0   -7.0363401            0            0            0            0            0            0 
10001000     708.8756    73929.496    560.45608   -293.38245    853.68331    560.30086    1324.6005   -293.38245            0   -7.0836347            0            0            0            0            0            0 
10002000    789.66637    75022.839    575.34606   -265.63978    876.36363    610.72385    1474.7224   -265.63978            0   -6.9804016            0            0            0            0            0            0 
10003000    777.01219    73095.897    564.24543   -284.89429    859.45522    574.56093    1402.8782   -284.89429            0   -7.1644178            0            0            0            0            0            0 
10004000    660.90771        77196    515.51199   -275.42145    785.22473    509.80328    1253.8694   -275.42145            0   -6.7838948            0            0            0            0            0            0 
10005000    658.42937    75289.476    569.08883   -294.42599    866.83266    572.40667    1295.3752   -294.42599            0   -6.9556805            0            0            0            0            0            0 
10006000    701.90088    73084.828    562.61845   -301.39837    856.97701    555.57864    1303.7118   -301.39837            0   -7.1655029            0            0            0            0            0            0 
10007000     642.8014    79591.383    561.82289    -270.7201    855.76522    585.04512    1331.1824    -270.7201            0   -6.5797267            0            0            0            0            0            0 
10008000    646.91746    73508.224    552.37277   -306.05997    841.37085    535.31088    1228.8336   -306.05997            0   -7.1242307            0            0            0            0            0            0 
10009000    643.08947    74463.078    530.96619   -296.75672    808.76449    512.00777    1210.3821   -296.75672            0   -7.0328753            0            0            0            0            0            0 
10010000    779.64288    73420.929     553.5754    -282.0392     843.2027     561.1635    1395.9809    -282.0392            0   -7.1327012            0            0            0            0            0            0 
10011000    635.02958    78269.229    582.02638   -295.56415    886.53905     590.9749    1315.8462   -295.56415            0    -6.690874            0            0            0            0            0            0 
10012000    712.16582    71927.222    597.53727   -305.66127    910.16514    604.50387     1351.555   -305.66127            0   -7.2808254            0            0            0            0            0            0 
10013000    717.50255     73024.77    542.67059   -294.23934    826.59255    532.35322    1296.4872   -294.23934            0    -7.171396            0            0            0            0            0            0 
10014000    719.87502    74677.343    601.45077   -298.79662    916.12617    617.32955      1401.34   -298.79662            0   -7.0126966            0            0            0            0            0            0 
10015000    688.65203     74556.91    568.07449   -294.71957    865.28762    570.56805    1319.3642   -294.71957            0   -7.0240242            0            0            0            0            0            0 
10016000    685.68513    72388.645    585.57534   -308.53459    891.94481    583.41022    1307.2977   -308.53459            0   -7.2344157            0            0            0            0            0            0 
10017000    742.52667    74628.566    566.92413   -287.39494     863.5354    576.14046    1384.2924   -287.39494            0   -7.0172801            0            0            0            0            0            0 
10018000    790.64111    75674.686    624.94076   -278.75232    951.90598    673.15366     1545.735   -278.75232            0   -6.9202738            0            0            0            0            0            0 
10019000    612.85546    77568.631    581.01467   -283.21669    884.99802    601.78134    1295.0795   -283.21669            0   -6.7513058            0            0            0            0            0            0 
10020000    720.04478    76242.091    561.96055   -276.74413     855.9749    579.23078    1379.8577   -276.74413            0   -6.8687721            0            0            0            0            0            0 
10021000    674.55926    72909.654    545.96358   -311.72822    831.60842    519.88019    1237.1475   -311.72822            0   -7.1827189            0            0            0            0            0            0 
10022000    669.84478    74427.471    541.58372    -287.3156    824.93704    537.62144    1264.7033    -287.3156            0   -7.0362399            0            0            0            0            0            0 
10023000    749.23115    76607.631    536.13124   -268.71369    816.63186    547.91817     1384.992   -268.71369            0   -6.8359972            0            0            0            0            0            0 
10024000    721.55952    70257.174    528.01301   -305.39412    804.26622     498.8721    1238.2028   -305.39412            0   -7.4538942            0            0            0            0            0            0 
10025000    693.35463    75898.484    532.44282   -278.04138    811.01368     532.9723    1300.4476   -278.04138            0   -6.8998683            0            0            0            0            0            0 
10026000     722.3501    73524.481    570.18278   -302.13278    868.49895    566.36617    1340.9271   -302.13278            0   -7.1226554            0            0            0            0            0            0 
10027000    684.37188     74006.64    578.22634   -302.43287    880.75086    578.31798     1316.968   -302.43287            0   -7.0762508            0            0            0            0            0            0 
10028000    784.60502    72344.761    556.09844   -292.31333    847.04578    554.73244    1382.5489   -292.31333            0    -7.238804            0            0            0            0            0            0 
10029000    718.43973    72696.854    598.67347   -304.52704     911.8958    607.36876    1369.0651   -304.52704            0   -7.2037442            0            0            0            0            0            0 
10030000    636.34474    77093.762    590.77714   -292.86769    899.86816    607.00046    1322.4641   -292.86769            0   -6.7928913            0            0            0            0            0            0 
10031000    704.32686    71698.904    535.01755   -314.73896    814.93549    500.19653    1236.6794   -314.73896            0   -7.3040104            0            0            0            0            0            0 
10032000    621.89354    77439.705     565.2543   -287.13704    860.99192    573.85489    1276.2082   -287.13704            0   -6.7625457            0            0            0            0            0            0 
10033000    679.07318    73980.371      531.358   -288.53606    809.36128    520.82522    1253.4962   -288.53606            0   -7.0787635            0            0            0            0            0            0 
10034000     768.9466    72580.507    545.81894   -287.12611     831.3881    544.26198    1358.2014   -287.12611            0   -7.2152919            0            0            0            0            0            0 
10035000    761.12034    75967.172    550.15301   -269.86065    837.98974    568.12909    1411.3768   -269.86065            0   -6.8936296            0            0            0            0            0            0 
10036000    694.49041    73959.655    567.70639   -301.66987    864.72693    563.05706    1312.1523   -301.66987            0   -7.0807462            0            0            0            0            0            0 
10037000    701.71577    75022.904    536.67708   -279.71369    817.46328    537.74958    1305.5193   -279.71369            0   -6.9803956            0            0            0            0            0            0 
10038000    702.99511    76466.239    595.18908    -282.8235    906.58839     623.7649    1407.7321    -282.8235            0   -6.8486374            0            0            0            0            0            0 
10039000    753.09206    74451.373    572.31973   -290.48702    871.75394    581.26692     1398.972   -290.48702            0    -7.033981            0            0            0            0            0            0 
10040000    675.51473    72461.436    578.45775   -306.43221    881.10333    574.67112    1288.5387   -306.43221            0   -7.2271483            0            0            0            0            0            0 
10041000    637.28663    76070.431     554.2124   -293.11957    844.17297     551.0534    1258.0651   -293.11957            0   -6.8842721            0            0            0            0            0            0 
10042000    632.58799    77216.849    543.02133   -286.80067     827.1268    540.32613    1252.7015   -286.80067            0   -6.7820632            0            0            0            0            0            0 
10043000    703.87208    78888.348    547.69606   -262.29284    834.24732    571.95448    1381.7633   -262.29284            0   -6.6383637            0            0            0            0            0            0 
10044000    694.16474    73411.446    603.18569   -304.97523    918.76878    613.79355    1356.9876   -304.97523            0   -7.1336225            0            0            0            0            0            0 
10045000    739.55463    74795.558    555.77318   -285.29412    846.55034    561.25621    1367.9746   -285.29412            0   -7.0016129            0            0            0            0            0            0 
10046000    653.50689    77047.682    535.20996   -277.44329    815.22856    537.78527    1272.1058   -277.44329            0   -6.7969539            0            0            0            0            0            0 
10047000    630.02856    70047.397    551.48651    -328.0837    840.02091    511.93721    1155.5551    -328.0837            0   -7.4762171            0            0            0            0            0            0 
10048000    657.33606    77233.794    546.56381   -281.10376    832.52268    551.41892    1291.8263   -281.10376            0   -6.7805751            0            0            0            0            0            0 
10049000    681.26516    74852.562    549.20394   -292.71403    836.54412    543.83009    1287.5317   -292.71403            0   -6.9962809            0            0            0            0            0            0 
10050000    665.49553    74042.467    543.54252   -292.28106    827.92067    535.63961    1254.2639   -292.28106            0   -7.0728268            0            0            0            0            0            0 
10051000    726.01844    72067.982    572.32117   -297.54712    871.75613    574.20901    1337.2817   -297.54712            0   -7.2666048            0            0            0            0            0            0 
10052000    653.80706    80308.994    570.44912   -263.21431    868.90464    605.69033     1371.445   -263.21431            0   -6.5209327            0            0            0            0            0            0 
10053000    716.41747    74094.984    605.01066   -295.19608    921.54857     626.3525    1400.5127   -295.19608            0   -7.0678137            0            0            0            0            0            0 
10054000    752.69943    71502.937    548.97923   -306.67528    836.20183    529.52655    1314.4393   -306.67528            0   -7.3240284            0            0            0            0            0            0 
10055000    689.83009     74412.36    555.58302     -297.832    846.26069    548.42868    1297.0516     -297.832            0   -7.0376688            0            0            0            0            0            0 
10056000    598.52253    74885.069     546.5621    -300.2015    832.52008    532.31858    1185.9782    -300.2015            0   -6.9932438            0            0            0            0            0            0 
10057000    616.95313    76939.162    540.95497   -291.70935    823.97932    532.26997      1224.54   -291.70935            0   -6.8065408            0            0            0            0            0            0 
10058000    788.39279    72762.257    575.51594   -292.64594    876.62239    583.97645    1420.5896   -292.64594            0   -7.1972692            0            0            0            0            0            0 
10059000    742.80253    75966.036    563.53899   -277.02809    858.37917    581.35108    1404.2921   -277.02809            0   -6.8937327            0            0            0            0            0            0 
10060000    614.32552    74338.494    525.49906   -297.57712    800.43698    502.85986    1168.8813   -297.57712            0   -7.0446618            0            0            0            0            0            0 
10061000    739.62614    74650.262    550.62784   -284.58786    838.71298    554.12512    1359.3543   -284.58786            0   -7.0152405            0            0            0            0            0            0 
10062000    836.49721     72371.89    617.51339   -288.48616    940.59265    652.10649     1535.004   -288.48616            0   -7.2360905            0            0            0            0            0            0 
10063000    643.86048    74999.306    575.63721   -301.18656    876.80711    575.62055    1279.8674   -301.18656            0   -6.9825919            0            0            0            0            0            0 
10064000    760.11134    76177.939    533.12079   -271.90052    812.04636    540.14584    1384.6121   -271.90052            0   -6.8745565            0            0            0            0            0            0 
10065000    630.39668    79466.429    573.29086   -284.84031    873.23317    588.39286    1318.9825   -284.84031            0   -6.5900727            0            0            0            0            0            0 
10066000    778.09742    71358.263    559.28269   -302.86504    851.89601    549.03096    1358.7869   -302.86504            0   -7.3388775            0            0            0            0            0            0 
10067000    609.79347    75618.695    524.54718   -287.63533    798.98709    511.35176    1183.8449   -287.63533            0   -6.9253978            0            0            0            0            0            0 
10068000    661.98977    75053.982    554.48789   -290.77285    844.59259    553.81974     1278.424   -290.77285            0   -6.9775052            0            0            0            0            0            0 
10069000    717.46527    73290.874    572.81512   -294.65304    872.50852    577.85548    1344.7342   -294.65304            0   -7.1453581            0            0            0            0            0            0 
10070000    718.66847     77285.71     626.5846   -286.70061    954.40987    667.70926    1477.7441   -286.70061            0   -6.7760204            0            0            0            0            0            0 
10071000    670.45856    76867.664    568.94448   -281.57115    866.61279    585.04164    1336.6499   -281.57115            0   -6.8128718            0            0            0            0            0            0 
10072000     722.5079    74732.055    528.58061   -285.03413    805.13077    520.09664     1307.551   -285.03413            0   -7.0075625            0            0            0            0            0            0 
10073000    710.72217    74487.301    564.94741   -289.95025    860.52447    570.57421    1342.6465   -289.95025            0   -7.0305883            0            0            0            0            0            0 
10074000    801.11877    70974.357    574.84878   -304.16425    875.60618    571.44193    1400.6705   -304.16425            0    -7.378574            0            0            0            0            0            0 
10075000    705.77955     76131.71    552.55651   -272.53687    841.65072    569.11385    1352.7429   -272.53687            0   -6.8787309            0            0            0            0            0            0 
10076000    740.90978    73293.158    569.92743   -297.41784    868.11001    570.69217    1362.6547   -297.41784            0   -7.1451355            0            0            0            0            0            0 
10077000    582.77034    78616.828    556.32498   -286.64439    847.39084    560.74645    1228.9193   -286.64439            0   -6.6612907            0            0            0            0            0            0 
10078000    636.36782    71949.168    561.95813   -323.28448    855.97121    532.68674    1200.4306   -323.28448            0   -7.2786046            0            0            0            0            0            0 
10079000    634.59658     75997.43    566.47878   -298.51444    862.85704     564.3426    1267.6943   -298.51444            0   -6.8908849            0            0            0            0            0            0 
10080000    739.10504    75412.914    538.11844   -281.95193    819.65874    537.70681    1350.5893   -281.95193            0   -6.9442953            0            0            0            0            0            0 
10081000    655.94842    74949.239    571.55158    -296.9003     870.5839     573.6836    1290.6731    -296.9003            0   -6.9872563            0            0            0            0            0            0 
10082000    842.02071     68765.72    567.31771   -312.76659     864.1349    551.36831    1395.8119   -312.76659            0   -7.6155612            0            0            0            0            0            0 
10083000    662.59584    75540.515    560.45936   -294.65248     853.6883    559.03582     1289.005   -294.65248            0   -6.9325652            0            0            0            0            0            0 
10084000    726.86158    72600.572    546.68135   -297.23223    832.70172     535.4695    1305.0741   -297.23223            0   -7.2132978            0            0            0            0            0            0 
10085000    661.10727    74773.076    617.85904   -297.56672    941.11914    643.55242    1364.4824   -297.56672            0   -7.0037181            0            0            0            0            0            0 
10086000    599.24311    79097.852    560.77321   -280.78529    854.16635    573.38106    1264.6446   -280.78529            0   -6.6207809            0            0            0            0            0            0 
10087000    767.02407    73624.315    572.80275   -279.05299    872.48968    593.43668    1417.0174   -279.05299            0   -7.1129972            0            0            0            0            0            0 
10088000    766.86716    71770.545    560.00949    -282.3857    853.00306    570.61736     1373.297    -282.3857            0   -7.2967197            0            0            0            0            0            0 
10089000    623.32109    75161.184    565.25416   -302.23778     860.9917    558.75392    1242.0066   -302.23778            0   -6.9675531            0            0            0            0            0            0 
10090000    686.80566    74693.529    547.93969    -293.9066    834.61841    540.71181    1288.8688    -293.9066            0   -7.0111769            0            0            0            0            0            0 
10091000    623.35618    78686.209    540.29099   -275.80454    822.96795    547.16342    1262.5006   -275.80454            0   -6.6554172            0            0            0            0            0            0 
10092000    763.46499    75918.409    552.36825   -261.66385    841.36397    579.70011    1425.0025   -261.66385            0   -6.8980574            0            0            0            0            0            0 
10093000    694.66187      74820.2    533.40233   -289.81793    812.47519    522.65726    1280.6555   -289.81793            0    -6.999307            0            0            0            0            0            0 
10094000    641.13664    75286.921    564.08329   -299.99432    859.20825    559.21393    1263.1708   -299.99432            0   -6.9559166            0            0            0            0            0            0 
10095000    590.62184    75966.316    530.18412   -300.99855    807.57324    506.57469    1160.9192   -300.99855            0   -6.8937073            0            0            0            0            0            0 
10096000    757.43355    73193.095    515.00725   -280.35204    784.45592    504.10388    1312.6235   -280.35204            0   -7.1549037            0            0            0            0            0            0 
10097000    560.00293     75871.69    533.26575   -297.01908    812.26715    515.24807    1134.8973   -297.01908            0    -6.902305            0            0            0            0            0            0 
10098000    686.24175    74011.566    556.67251    -301.4981    847.92019    546.42209    1287.1396    -301.4981            0   -7.0757798            0            0            0            0            0            0 
10099000    801.27737    73461.619    591.99077   -280.21369    901.71674    621.50306    1479.9615   -280.21369            0   -7.1287504            0            0            0            0            0            0 
10100000    628.34494    77065.596    563.04055   -288.89195    857.61995      568.728    1274.9391   -288.89195            0    -6.795374            0            0            0            0            0            0 
10101000    609.07808    74052.353    542.78081   -298.10072    826.76044    528.65971    1186.4504   -298.10072            0   -7.0718826            0            0            0            0            0            0 
10102000    737.93707    74315.706    581.05624   -279.58851    885.06134    605.47282    1405.2626   -279.58851            0   -7.0468219            0            0            0            0            0            0 
10103000       605.84    78833.682    579.14253   -294.26159    882.14639     587.8848    1284.4241   -294.26159            0   -6.6429669            0            0            0            0            0            0 
10104000    684.58378    74787.305    554.30253   -284.58459    844.31025    559.72566    1306.3985   -284.58459            0   -7.0023856            0            0            0            0            0            0 
10105000    659.58396    73886.806     555.0253   -297.40047    845.41117     548.0107    1258.7542   -297.40047            0   -7.0877274            0            0            0            0            0            0 
10106000    701.21227    75951.796    567.18875   -284.56144    863.93846    579.37702    1356.0952   -284.56144            0   -6.8950252            0            0            0            0            0            0 
10107000    627.16278    73484.745    563.38316   -308.49305    858.14182    549.64877    1221.7789   -308.49305            0    -7.126507            0            0            0            0            0            0 
10108000     585.5633    76740.589    550.91815   -294.55684    839.15518    544.59835    1199.9507   -294.55684            0   -6.8241533            0            0            0            0            0            0 
10109000    699.40404    74839.709    564.07184   -293.45641    859.19081     565.7344    1329.1062   -293.45641            0   -6.9974824            0            0            0            0            0            0 
10110000    720.11741    70823.279    594.36543   -311.73328    905.33382    593.60055    1337.3989   -311.73328            0   -7.3943137            0            0            0            0            0            0 
10111000    594.62253    79539.712    565.73535   -282.34453    861.72465    579.38013    1269.1453   -282.34453            0   -6.5840011            0            0            0            0            0            0 
10112000    704.38988    76744.395    555.55679   -274.92318    846.22073    571.29755    1359.6777   -274.92318            0   -6.8238149            0            0            0            0            0            0 
10113000    690.94251    73587.038    515.13757    -300.6568    784.65443    483.99763    1225.5112    -300.6568            0   -7.1166004            0            0            0            0            0            0 
10114000    684.40675    76717.801    536.00925   -280.37929    816.44603    536.06674    1301.8155   -280.37929            0   -6.8261803            0            0            0            0            0            0 
10115000    649.37727     77354.24    565.88928   -284.55857    861.95912    577.40055     1309.984   -284.55857            0   -6.7700173            0            0            0            0            0            0 
10116000    796.29597    70678.657    576.20802   -303.81971    877.67656    573.85685    1394.6594   -303.81971            0   -7.4094439            0            0            0            0            0            0 
10117000    585.13587    81079.054    569.84823   -277.78136    867.98937    590.20801    1282.1047   -277.78136            0   -6.4589992            0            0            0            0            0            0 
10118000    554.87062    74491.112     528.2444   -314.80757    804.61866    489.81109    1092.6095   -314.80757            0   -7.0302286            0            0            0            0            0            0 
10119000    692.70632     73844.65    543.27383     -296.129     827.5114     531.3824    1277.3914     -296.129            0   -7.0917737            0            0            0            0            0            0 
10120000    703.17061    77464.709    563.37088   -281.47703    858.12311    576.64609    1371.0484   -281.47703            0   -6.7603629            0            0            0            0            0            0 
10121000    767.41902    72181.876    586.51064   -299.04573    893.36944    594.32371    1402.1847   -299.04573            0    -7.255139            0            0            0            0            0            0 
10122000    648.02858    74508.667    521.11715    -290.5222    793.76248    503.24028    1207.4092    -290.5222            0   -7.0285722            0            0            0            0            0            0 
10123000    659.84012    77012.089    553.57594   -282.16931    843.20352    561.03421    1302.1286   -282.16931            0   -6.8000953            0            0            0            0            0            0 
10124000    725.22629    70935.404    570.33703   -313.50314    868.73391    555.23077    1305.4919   -313.50314            0   -7.3826259            0            0            0            0            0            0 
10125000     620.9383    77962.297    560.78656   -288.40254    854.18668    565.78414    1271.7911   -288.40254            0   -6.7172155            0            0            0            0            0            0 
10126000    703.71816    73846.286    583.57855   -287.50059     888.9033    601.40271    1359.2877   -287.50059            0   -7.0916166            0            0            0            0            0            0 
10127000    602.73994     77737.62    600.15309   -291.16224    914.14955    622.98731    1306.3277   -291.16224            0   -6.7366295            0            0            0            0            0            0 
10128000    790.29286    72518.799    560.66892   -293.30412    854.00749    560.70337    1396.5268   -293.30412            0   -7.2214316            0            0            0            0            0            0 
10129000    562.72155    76147.376    510.68988   -299.05902    777.87973    478.82071    1103.7406   -299.05902            0   -6.8773157            0            0            0            0            0            0 
10130000     655.3674    71603.113    556.52795   -316.48079        847.7    531.21921    1215.5918   -316.48079            0   -7.3137818            0            0            0            0            0            0 
10131000    578.91356    77362.893    517.64686    -287.8212    788.47656    500.65536    1153.8195    -287.8212            0   -6.7692601            0            0            0            0            0            0 
10132000     660.2112    73699.613    554.15183   -302.55278     844.0807    541.52793    1251.1449   -302.55278            0   -7.1057299            0            0            0            0            0            0 
10133000      590.444    74826.161    541.59461   -302.20532    824.95363    522.74831    1167.0779   -302.20532            0   -6.9987493            0            0            0            0            0            0 
10134000    684.32105    80641.917    576.96286    -260.7351    878.82633    618.09123    1422.9073    -260.7351            0   -6.4940116            0            0            0            0            0            0 
10135000    699.95815    72928.238    521.80291   -292.28598    794.80703    502.52104     1246.985   -292.28598            0   -7.1808885            0            0            0            0            0            0 
10136000    617.89855    75433.799    578.17164   -299.54358    880.66754    581.12396    1260.8893   -299.54358            0   -6.9423727            0            0            0            0            0            0 
10137000    727.81966    75569.194    568.75324   -292.65113    866.32148    573.67035    1375.7998   -292.65113            0   -6.9299343            0            0            0            0            0            0 
10138000    672.79109    72322.808    598.74874   -309.21312    912.01045    602.79733    1312.4264   -309.21312            0   -7.2410013            0            0            0            0            0            0 
10139000    640.46119    76667.761    552.53704   -287.98549    841.62107    553.63558    1269.7485   -287.98549            0   -6.8306357            0            0            0            0            0            0 
10140000    696.34205    73676.292    537.33579   -288.33621    818.46661     530.1304    1278.3452   -288.33621            0   -7.1079791            0            0            0            0            0            0 
10141000    669.41923    76652.542    557.67552   -285.79536    849.44797    563.65261    1311.9955   -285.79536            0   -6.8319919            0            0            0            0            0            0 
10142000    763.13955    72388.643    542.69995   -297.66803    826.63728    528.96924    1334.6264   -297.66803            0   -7.2344158            0            0            0            0            0            0 
10143000    615.15836    77332.094    546.74247   -289.45171    832.79481     543.3431    1237.1244   -289.45171            0   -6.7719561            0            0            0            0            0            0 
10144000    640.26972    73822.471    566.52986   -301.44204    862.93484     561.4928    1250.8232   -301.44204            0   -7.0939043            0            0            0            0            0            0 
10145000    764.46373    74546.788    574.81458   -276.24213    875.55409    599.31196    1430.4281   -276.24213            0    -7.024978            0            0            0            0            0            0 
10146000    635.68171    74919.971    560.96677   -301.01866    854.46118    553.44252     1248.008   -301.01866            0   -6.9899859            0            0            0            0            0            0 
10147000    683.69618    71894.565    574.62264    -318.1338    875.26172    557.12792    1273.9892    -318.1338            0   -7.2841326            0            0            0            0            0            0 
10148000    567.62767    76513.436    543.96095   -302.29933    828.55802    526.25869    1159.6574   -302.29933            0   -6.8444129            0            0            0            0            0            0 
10149000    838.54181    72498.033    533.83315   -279.35509    813.13141    533.77632    1420.3745   -279.35509            0      -7.2235            0            0            0            0            0            0 
10150000    677.03389    76912.145      547.156   -279.84232     833.4247    553.58237     1313.001   -279.84232            0   -6.8089317            0            0            0            0            0            0 
10151000    779.58733    71402.163    574.84978   -304.94262    875.60769    570.66508    1382.4707   -304.94262            0   -7.3343653            0            0            0            0            0            0 
10152000    564.92924    78892.946    555.23381   -286.54654    845.72877    559.18224    1209.1744   -286.54654            0   -6.6379768            0            0            0            0            0            0 
10153000    792.53654    74168.483    579.10958   -285.50997    882.09621    596.58624    1453.8502   -285.50997            0   -7.0608097            0            0            0            0            0            0 
10154000    662.41678     77721.26    575.82491   -275.05324    877.09301    602.03977    1352.8792   -275.05324            0   -6.7380475            0            0            0            0            0            0 
10155000    648.50096    75057.125    566.01372   -294.24045    862.14867    567.90822    1277.7776   -294.24045            0    -6.977213            0            0            0            0            0            0 
10156000    718.59718    72332.071    553.28335   -301.12158    842.75784    541.63626    1299.6766   -301.12158            0    -7.240074            0            0            0            0            0            0 
10157000    727.03052    75257.889    580.75519   -286.84961    884.60279    597.75317    1395.7122   -286.84961            0      -6.9586            0            0            0            0            0            0 
10158000    807.30847    74802.552    560.60865   -268.68561    853.91569    585.23008    1465.9378   -268.68561            0   -7.0009583            0            0            0            0            0            0 
10159000    704.70996    72183.603     560.8705   -298.42252    854.31455    555.89203     1297.757   -298.42252            0   -7.2549654            0            0            0            0            0            0 
10160000    683.83129    77877.303    560.48207   -280.56011    853.72289    573.16278    1349.8314   -280.56011            0   -6.7245465            0            0            0            0            0            0 
10161000    747.50044    75051.796    579.58321   -280.68585    882.81763    602.13178     1420.311   -280.68585            0   -6.9777083            0            0            0            0            0            0 
10162000    787.47759    70453.187    549.78091   -297.88948    837.42294    539.53346    1348.6568   -297.88948            0   -7.4331562            0            0            0            0            0            0 
10163000    713.51533     72213.84    580.53036   -303.78454    884.26032    580.47578     1331.925   -303.78454            0   -7.2519276            0            0            0            0            0            0 
10164000    709.60777    77136.402    559.48235   -276.86594    852.20012    575.33418    1373.6112   -276.86594            0   -6.7891363            0            0            0            0            0            0 
10165000    643.40592    75382.236    575.51228   -302.25239    876.61681    574.36442    1281.7072   -302.25239            0   -6.9471214            0            0            0            0            0            0 
10166000    689.62309    72221.335    538.54208   -301.66848    820.30404    518.63556    1244.9977   -301.66848            0   -7.2511751            0            0            0            0            0            0 
10167000    703.95779    74828.192    538.24056   -277.55139    819.84476    542.29337    1310.5172   -277.55139            0   -6.9985594            0            0            0            0            0            0 
10168000    738.25298    76018.031    578.26969   -277.45597    880.81689    603.36092    1421.8214   -277.45597            0   -6.8890175            0            0            0            0            0            0 
10169000    636.04285    73641.443    539.59621   -309.10711    821.90968    512.80257     1195.903   -309.10711            0   -7.1113428            0            0            0            0            0            0 
10170000    713.67591    76164.178     552.3434   -282.59527    841.32612    558.73085    1351.4652   -282.59527            0   -6.8757986            0            0            0            0            0            0 
10171000    646.31925    76501.517    568.58075   -286.41721    866.05875    579.64154    1300.7374   -286.41721            0   -6.8454792            0            0            0            0            0            0 
10172000    658.59814    75709.031    553.36595   -299.78094    842.88366    543.10272    1270.2863   -299.78094            0   -6.9171344            0            0            0            0            0            0 
10173000    712.50181    74281.889    548.58836   -286.59288    835.60647    549.01358    1320.8847   -286.59288            0     -7.05003            0            0            0            0            0            0 
10174000    684.02362    77075.052    574.76132   -277.44671    875.47296    598.02625    1366.9102   -277.44671            0   -6.7945403            0            0            0            0            0            0 
10175000    612.38936    75935.657    561.15641   -300.17901    854.75003    554.57102    1232.7577   -300.17901            0   -6.8964906            0            0            0            0            0            0 
10176000    637.42044    74656.183    553.55521   -296.76845    843.17193    546.40348    1240.4166   -296.76845            0   -7.0146842            0            0            0            0            0            0 
10177000    592.93562    74739.641    524.41594   -299.43888    798.78717    499.34829    1145.6487   -299.43888            0   -7.0068512            0            0            0            0            0            0 
10178000    708.25448    72055.806    562.56184   -302.28225    856.89078    554.60853    1298.8849   -302.28225            0   -7.2678327            0            0            0            0            0            0 
10179000    727.71285    76347.643    575.54402    -279.4809    876.66516    597.18425    1407.4576    -279.4809            0   -6.8592759            0            0            0            0            0            0 
10180000    703.20323     72278.41    584.69646   -309.15463     890.6061    581.45147    1322.7025   -309.15463            0   -7.2454491            0            0            0            0            0            0 
10181000    677.27731    74020.069    557.00284   -292.69293    848.42335    555.73041    1286.8559   -292.69293            0    -7.074967            0            0            0            0            0            0 
10182000    689.02243    74840.031    604.36499   -296.09412    920.56509    624.47097    1376.5149   -296.09412            0   -6.9974523            0            0            0            0            0            0 
10183000    653.41064    74748.817    551.68513   -292.27462    840.32345    548.04883    1260.3545   -292.27462            0   -7.0059911            0            0            0            0            0            0 
10184000    715.86356    73338.226    557.58838    -289.2253    849.31524    560.08994     1325.751    -289.2253            0   -7.1407446            0            0            0            0            0            0 
10185000    724.85216    74317.678    554.54499   -288.19372    844.67957    556.48585    1342.1148   -288.19372            0   -7.0466349            0            0            0            0            0            0 
10186000    673.41374      73358.7    568.23925   -308.07115    865.53858    557.46743    1277.9268   -308.07115            0   -7.1387518            0            0            0            0            0            0 
10187000    740.18798    74184.621    575.79869   -288.41214    877.05307    588.64093    1389.4552   -288.41214            0   -7.0592737            0            0            0            0            0            0 
10188000     721.1584    75536.318    559.81274   -272.77049    852.70337    579.93288    1374.3752   -272.77049            0   -6.9329504            0            0            0            0            0            0 
10189000    591.32474    75019.666     553.3286   -307.27499    842.82677    535.55178    1182.5112   -307.27499            0   -6.9806968            0            0            0            0            0            0 
10190000    647.20439    72717.875    551.88228   -318.43378    840.62374    522.18997    1208.5603   -318.43378            0   -7.2016618            0            0            0            0            0            0 
10191000    619.66991    78216.087    569.22564    -284.9048    867.04104    582.13624    1288.9946    -284.9048            0   -6.6954199            0            0            0            0            0            0 
10192000    825.25387    74991.209    603.32624   -277.64779    918.98286    641.33508    1543.8904   -277.64779            0   -6.9833458            0            0            0            0            0            0 
10193000    757.02589    73198.171    562.40882   -291.57186    856.65771    565.08586    1373.2263   -291.57186            0   -7.1544075            0            0            0            0            0            0 
10194000    629.76847    75857.254    552.09844   -291.31313      840.953    549.63987    1246.3529   -291.31313            0   -6.9036185            0            0            0            0            0            0 
10195000    595.59231    76482.026    530.46902   -289.62869     808.0072    518.37851    1182.7093   -289.62869            0   -6.8472237            0            0            0            0            0            0 
10196000    734.90217    69607.876    594.16304   -321.75849    905.02555    583.26705    1329.3099   -321.75849            0   -7.5234238            0            0            0            0            0            0 
10197000    642.49327    74723.856    540.59093   -292.85307    823.42483    530.57176    1230.7422   -292.85307            0   -7.0083314            0            0            0            0            0            0 
10198000    622.65197    79732.494    566.12376   -275.21535    862.31628    587.10094     1311.131   -275.21535            0   -6.5680818            0            0            0            0            0            0 
10199000    712.04696    73212.835    576.70453   -300.31361    878.43284    578.11923     1338.396   -300.31361            0   -7.1529746            0            0            0            0            0            0 
10200000    763.93976     76242.11    583.89455   -274.59857    889.38464    614.78607    1464.2206   -274.59857            0   -6.8687704            0            0            0            0            0            0 
10201000    726.76571    74899.333    549.81079   -284.96253    837.46846    552.50593    1346.3739   -284.96253            0    -6.991912            0            0            0            0            0            0 
10202000    677.34496    75309.373     547.5213   -289.44722    833.98112     544.5339    1288.4686   -289.44722            0   -6.9538428            0            0            0            0            0            0 
10203000    656.85436    75254.749    570.06526   -300.90107    868.31995    567.41888    1288.3253   -300.90107            0   -6.9588903            0            0            0            0            0            0 
10204000    680.11247    76609.763    573.97659   -288.26111    874.27767    586.01655    1345.8891   -288.26111            0   -6.8358069            0            0            0            0            0            0 
10205000    764.56099    73059.601    552.27964   -282.67033      841.229    558.55867    1373.1979   -282.67033            0   -7.1679771            0            0            0            0            0            0 
10206000    694.59997    76399.151    566.76344   -281.34553    863.29063     581.9451    1355.8707   -281.34553            0   -6.8546513            0            0            0            0            0            0 
10207000    633.79867    74335.822    538.20409   -298.87493     819.7892    520.91427    1208.0228   -298.87493            0   -7.0449149            0            0            0            0            0            0 
10208000    676.31213    77834.557    543.44287   -265.33559    827.76888    562.43329    1330.1403   -265.33559            0   -6.7282395            0            0            0            0            0            0 
10209000    760.85042    72869.603    550.72719   -291.95137    838.86431    546.91294    1355.4903   -291.95137            0   -7.1866667            0            0            0            0            0            0 
10210000    622.19822    72275.062    572.91451    -319.5249    872.65991    553.13502    1208.9678    -319.5249            0   -7.2457848            0            0            0            0            0            0 
10211000    665.39109    76501.674    550.67484   -284.82075    838.78458    553.96383    1296.3396   -284.82075            0   -6.8454652            0            0            0            0            0            0 
10212000      732.055    71692.666    575.30685   -312.80812     876.3039    563.49578    1328.9061   -312.80812            0    -7.304646            0            0            0            0            0            0 
10213000    698.07898    81549.478    552.38134   -241.57097    841.38391    599.81294    1430.0491   -241.57097            0     -6.42174            0            0            0            0            0            0 
10214000    699.89148    74000.896     586.3742   -292.25361    893.16163    600.90802    1356.2499   -292.25361            0   -7.0768001            0            0            0            0            0            0 
10215000    771.81617    73028.581    570.56022   -288.39414    869.07387    580.67974    1402.7002   -288.39414            0   -7.1710218            0            0            0            0            0            0 
10216000     673.4844    79948.513    557.09688   -260.37053    848.56659    588.19606    1373.4567   -260.37053            0    -6.550335            0            0            0            0            0            0 
10217000    773.36744    73823.163    561.80647   -285.11518    855.74021    570.62503    1403.2596   -285.11518            0   -7.0938378            0            0            0            0            0            0 
10218000    627.31216    75369.885    549.80379   -295.83394     837.4578    541.62387    1231.1607   -295.83394            0   -6.9482598            0            0            0            0            0            0 
10219000    581.25787    73223.844    507.80191   -315.99928     773.4808    457.48151    1078.2037   -315.99928            0   -7.1518991            0            0            0            0            0            0 
10220000    718.54292    73573.077    547.62404   -283.94939    834.13762    550.18823    1321.1761   -283.94939            0   -7.1179508            0            0            0            0            0            0 
10221000    653.29405    78326.163    542.94086   -277.15137    827.00423    549.85286    1296.1151   -277.15137            0   -6.6860105            0            0            0            0            0            0 
10222000    878.94179    70996.163    570.37711   -291.32043    868.79495    577.47452    1487.5363   -291.32043            0   -7.3763077            0            0            0            0            0            0 
10223000    674.42002    75996.032    544.88865   -283.97741    829.97109    545.99368    1293.4697   -283.97741            0   -6.8910117            0            0            0            0            0            0 
10224000    749.52714    78045.852    560.04409   -258.04119    853.05576    595.01457    1448.1404   -258.04119            0   -6.7100241            0            0            0            0            0            0 
10225000    678.74833    72625.069    544.34637   -305.22215    829.14509    523.92295    1242.8275   -305.22215            0   -7.2108647            0            0            0            0            0            0 
10226000    580.52964    75121.619    547.74637   -300.53346    834.32396     533.7905    1169.8024   -300.53346            0   -6.9712228            0            0            0            0            0            0 
10227000    655.85398     71946.68    570.42966   -323.12898    868.87499    545.74601     1233.913   -323.12898            0   -7.2788563            0            0            0            0            0            0 
10228000    704.55666     77319.27    549.78059   -278.29809    837.42246    559.12437    1353.5981   -278.29809            0   -6.7730792            0            0            0            0            0            0 
10229000    716.67995    73571.224    575.22238    -306.8651    876.17523    569.31013    1338.2797    -306.8651            0   -7.1181301            0            0            0            0            0            0 
10230000    729.97351    73847.003    544.01421   -285.04175    828.63914    543.59739    1329.7663   -285.04175            0   -7.0915477            0            0            0            0            0            0 
10231000    695.91624      75754.6    537.17676    -282.5344    818.22439    535.68999    1304.5404    -282.5344            0   -6.9129735            0            0            0            0            0            0 
10232000    656.05902    77350.731    579.76929    -287.0619    883.10106    596.03916    1336.1269    -287.0619            0   -6.7703245            0            0            0            0            0            0 
10233000    683.47412    71124.884     542.1704   -317.88581    825.83067    507.94486    1216.9013   -317.88581            0   -7.3629581            0            0            0            0            0            0 
10234000    646.44125    76145.403    542.66813   -288.53849     826.5888    538.05031     1255.925   -288.53849            0   -6.8774939            0            0            0            0            0            0 
10235000    681.27703    72641.956    567.43336   -309.98972    864.31105    554.32133    1276.0719   -309.98972            0   -7.2091884            0            0            0            0            0            0 
10236000    787.96976        74697    590.37552    -281.6643    899.25641    617.59211    1475.9899    -281.6643            0   -7.0108511            0            0            0            0            0            0 
10237000    649.19487    73467.235    555.58539   -300.00854     846.2643    546.25575    1241.8319   -300.00854            0   -7.1282055            0            0            0            0            0            0 
10238000    723.62784    70446.777    557.92815   -312.99756    849.83278    536.83523    1280.2861   -312.99756            0   -7.4338326            0            0            0            0            0            0 
10239000    766.87942    77119.116    567.95307   -258.19949    865.10267    606.90318    1469.4149   -258.19949            0    -6.790658            0            0            0            0            0            0 
10240000    852.19488    71797.384    594.80947   -300.42274    906.01017    605.58744    1497.9132   -300.42274            0   -7.2939921            0            0            0            0            0            0 
10241000    634.35549    76761.731    562.20415   -293.59272    856.34595    562.75324    1272.9086   -293.59272            0   -6.8222738            0            0            0            0            0            0 
10242000    639.32742    73895.635    523.20028   -302.61338    796.93549    494.32211    1183.3202   -302.61338            0   -7.0868806            0            0            0            0            0            0 
10243000    704.34555      76585.4    575.13875   -282.07355    876.04786     593.9743    1380.6716   -282.07355            0   -6.8379814            0            0            0            0            0            0 
10244000    642.55449    78376.777    565.06233   -278.06628    860.69951    582.63324    1317.1019   -278.06628            0   -6.6816927            0            0            0            0            0            0 
10245000    676.55267    72859.782    546.62662    -306.3056    832.61835    526.31275    1245.2076    -306.3056            0   -7.1876354            0            0            0            0            0            0 
10246000    637.81882    79818.003    566.83967   -281.44529    863.40674    581.96146    1324.4232   -281.44529            0   -6.5610455            0            0            0            0            0            0 
10247000     734.5873    73331.695    603.76471   -306.80038    919.65074    612.85036    1398.4676   -306.80038            0   -7.1413807            0            0            0            0            0            0 
10248000     584.1587    78166.512    536.72177   -285.09051    817.53134    532.44083    1198.3691   -285.09051            0   -6.6996663            0            0            0            0            0            0 
10249000    831.94711    73463.177    572.79042   -281.15312     872.4709    591.31778    1482.6535   -281.15312            0   -7.1285992            0            0            0            0            0            0 
10250000       573.12     78090.91    565.26963   -293.77971    861.01527    567.23556    1219.9481   -293.77971            0   -6.7061524            0            0            0            0            0            0 
10251000    604.36659    75129.194     536.2853   -300.64489    816.86652    516.22163    1178.4154   -300.64489            0     -6.97052            0            0            0            0            0            0 
10252000    711.20943    72339.354    551.86009   -299.76462    840.58994    540.82532    1291.1479   -299.76462            0   -7.2393451            0            0            0            0            0            0 
10253000    723.60962    75564.277    582.75505    -281.1313    887.64896    606.51766    1403.9553    -281.1313            0   -6.9303851            0            0            0            0            0            0 
10254000    661.03974    77501.517     587.9726   -285.18655     895.5963    610.40974    1357.5698   -285.18655            0   -6.7571522            0            0            0            0            0            0 
10255000    711.04977    73444.209    548.38584   -297.44365    835.29799    537.85434    1299.4658   -297.44365            0   -7.1304403            0            0            0            0            0            0 
10256000    690.75888    77110.476     559.0096   -275.42686    851.48003    576.05317    1352.8649   -275.42686            0   -6.7914189            0            0            0            0            0            0 
10257000    617.96333    77010.355    547.18943   -279.29081    833.47562    554.18481      1248.23   -279.29081            0   -6.8002484            0            0            0            0            0            0 
10258000    700.55594     75975.97    594.51778   -289.31946    905.56588    616.24642    1392.4845   -289.31946            0   -6.8928314            0            0            0            0            0            0 
10259000    740.45099    73569.431    568.36425   -292.46626    865.72898    573.26272    1367.7183   -292.46626            0   -7.1183036            0            0            0            0            0            0 
10260000    722.29062    75033.499      540.042   -285.45285     822.5887    537.13585    1327.5288   -285.45285            0   -6.9794099            0            0            0            0            0            0 
10261000    682.03955    76830.309    548.32583   -277.53068    835.20658    557.67591    1321.8953   -277.53068            0   -6.8161843            0            0            0            0            0            0 
10262000    801.26095     70409.42    551.24607   -301.12482    839.65468    538.52986     1361.304   -301.12482            0   -7.4377767            0            0            0            0            0            0 
10263000    680.65244    75068.559    584.63509   -296.34998    890.51262    594.16264    1339.3395   -296.34998            0   -6.9761502            0            0            0            0            0            0 
10264000    777.54243    74976.975    561.40593   -276.60347     855.1301    578.52664    1428.7399   -276.60347            0   -6.9846716            0            0            0            0            0            0 
10265000    605.65746    75812.186    574.47743   -306.41488    875.04054    568.62567    1238.2666   -306.41488            0   -6.9077226            0            0            0            0            0            0 
10266000    637.87162    75235.077    549.30117      -295.81    836.69221    540.88221    1240.7718      -295.81            0   -6.9607099            0            0            0            0            0            0 
10267000    566.41546    75697.254    550.44617   -307.16881    838.43627    531.26745    1156.5713   -307.16881            0   -6.9182106            0            0            0            0            0            0 
10268000    594.42423     72346.06     527.5239   -312.58995     803.5212    490.93124    1118.1041   -312.58995            0    -7.238674            0            0            0            0            0            0 
10269000    674.28276    74476.167    571.16749   -291.33684    869.99885    578.66201      1311.04   -291.33684            0   -7.0316393            0            0            0            0            0            0 
10270000    768.15415     75149.48    572.85664   -280.31972    872.57176    592.25204    1434.1322   -280.31972            0   -6.9686384            0            0            0            0            0            0 
10271000    839.68839    72708.113    584.38543   -280.98367    890.13234    609.14867    1499.5318   -280.98367            0   -7.2026287            0            0            0            0            0            0 
10272000     569.6576    79192.067    534.95782   -284.46156     814.8445    530.38294    1188.3005   -284.46156            0   -6.6129041            0            0            0            0            0            0 
10273000    731.14343    71523.414    557.66546   -306.53622    849.43265    542.89643    1305.5489   -306.53622            0   -7.3219316            0            0            0            0            0            0 
10274000    789.97842    74937.545    541.96679   -272.21579    825.52053    553.30474    1416.6621   -272.21579            0   -6.9883467            0            0            0            0            0            0 
10275000    790.23206    71283.635    589.06809   -299.29626    897.26494    597.96868    1419.4929   -299.29626            0   -7.3465607            0            0            0            0            0            0 
10276000    816.82939    74434.082    588.69601   -274.60087    896.69819    622.09732    1508.8022   -274.60087            0    -7.035615            0            0            0            0            0            0 
10277000    770.21427    76148.746    566.14968   -269.39709    862.35575    592.95867    1448.3212   -269.39709            0   -6.8771919            0            0            0            0            0            0 
10278000    762.07764    71623.645    559.76612   -304.50428    852.63236    548.12808    1344.1619   -304.50428            0   -7.3116852            0            0            0            0            0            0 
10279000      652.651    76125.593    563.22414   -282.51273     857.8996    575.38687     1299.969   -282.51273            0   -6.8792836            0            0            0            0            0            0 
10280000    639.79474    74485.055    564.03043   -303.08343    859.12774    556.04431    1251.0457   -303.08343            0   -7.0308003            0            0            0            0            0            0 
10281000    888.81581    69457.364    578.92693   -297.93118      881.818    583.88682    1484.2256   -297.93118            0   -7.5397267            0            0            0            0            0            0 
10282000    679.57721    75717.764    506.18275   -275.94355    771.01449    495.07094    1245.5049   -275.94355            0   -6.9163366            0            0            0            0            0            0 
10283000    693.99872    73016.506    537.77073   -293.91055    819.12912    525.21857    1264.2376   -293.91055            0   -7.1722077            0            0            0            0            0            0 
10284000    712.28093    75223.381     554.1581   -281.98642    844.09025    562.10383    1343.5158   -281.98642            0   -6.9617921            0            0            0            0            0            0 
10285000    703.31568    75342.926    591.18669   -302.92472    900.49198    597.56726      1370.37   -302.92472            0   -6.9507461            0            0            0            0            0            0 
10286000    734.32119    71729.179    555.13033   -296.57221    845.57116    548.99895    1317.1698   -296.57221            0   -7.3009277            0            0            0            0            0            0 
10287000    736.20185    74105.161    551.52105   -278.59859    840.07352    561.47493    1357.1234   -278.59859            0   -7.0668431            0            0            0            0            0            0 
10288000    701.47382    76314.166    617.54171   -287.09707    940.63578    653.53872    1434.2537   -287.09707            0   -6.8622849            0            0            0            0            0            0 
10289000    730.10699    74948.895     577.4922   -290.55885    879.63262    589.07378    1387.1192   -290.55885            0   -6.9872884            0            0            0            0            0            0 
10290000    602.50275    77819.241    571.38871   -284.04686    870.33582    586.28897    1270.0777   -284.04686            0   -6.7295637            0            0            0            0            0            0 
10291000    615.96436    77064.694    549.31747   -289.27105    836.71704    547.44599    1239.7342   -289.27105            0   -6.7954535            0            0            0            0            0            0 
10292000    708.52367    70537.132    523.77485   -312.75481    797.81068    485.05587    1213.9225   -312.75481            0   -7.4243101            0            0            0            0            0            0 
10293000    676.52139    73301.816    551.22479    -305.5332    839.62226    534.08906    1257.3119    -305.5332            0   -7.1442915            0            0            0            0            0            0 
10294000    643.03511     80084.79    535.14438   -268.68625    815.12867    546.44242    1297.4782   -268.68625            0   -6.5391886            0            0            0            0            0            0 
10295000    814.29181    69002.601    598.84583   -316.25199    912.15834    595.90635    1415.3544   -316.25199            0   -7.5894175            0            0            0            0            0            0 
10296000    724.43469    75668.943    564.45543   -285.62116    859.77509    574.15393    1373.6067   -285.62116            0    -6.920799            0            0            0            0            0            0 
10297000    748.60891    75859.588    551.63667   -272.28423    840.24963     567.9654    1396.1771   -272.28423            0   -6.9034061            0            0            0            0            0            0 
10298000    835.46709    75279.193    536.78547   -253.02254    817.62837    564.60582    1481.8399   -253.02254            0   -6.9566307            0            0            0            0            0            0 
10299000     650.2801    77083.245    611.12195   -290.53431    930.85725    640.32295    1371.3549   -290.53431            0   -6.7938181            0            0            0            0            0            0 
10300000    714.13942    73495.248    548.71293   -295.94782     835.7962    539.84838    1305.3007   -295.94782            0   -7.1254885            0            0            0            0            0            0 
10301000    686.20289    74141.727    562.11905    -298.2692    856.21632    557.94713    1299.9253    -298.2692            0   -7.0633578            0            0            0            0            0            0 
10302000     651.3202    74146.983    604.68681   -310.57985    921.05527    610.47542    1314.7855   -310.57985            0   -7.0628571            0            0            0            0            0            0 
10303000    660.63871     77114.47    589.49405   -280.54258    897.91375    617.37117    1360.3489   -280.54258            0   -6.7910671            0            0            0            0            0            0 
10304000    790.16078    73237.051     564.3636   -280.52066    859.63521    579.11455    1423.0752   -280.52066            0   -7.1506094            0            0            0            0            0            0 
10305000    677.02094    77948.049    573.81668   -280.14663    874.03408    593.88745    1363.5197   -280.14663            0   -6.7184433            0            0            0            0            0            0 
10306000    595.93473    76420.372    521.96194   -294.47945    795.04927    500.56981    1164.7467   -294.47945            0   -6.8527479            0            0            0            0            0            0 
10307000     742.5707    69452.175     573.5452   -317.95007    873.62057    555.67051     1307.812   -317.95007            0   -7.5402901            0            0            0            0            0            0 
10308000    639.36946    76795.418    565.95798   -286.99455    862.06376    575.06921    1291.1518   -286.99455            0   -6.8192811            0            0            0            0            0            0 
10309000    787.93329    73160.774    581.42552   -288.88996    885.62383    596.73387    1437.4389   -288.88996            0   -7.1580646            0            0            0            0            0            0 
10310000    595.57039    74029.564    527.05517    -305.0349    802.80724    497.77234    1140.7771    -305.0349            0   -7.0740595            0            0            0            0            0            0 
10311000    620.13212    77738.726    568.16382   -279.44947    865.42368    585.97421    1289.0425   -279.44947            0   -6.7365336            0            0            0            0            0            0 
10312000    750.46281     68418.42    559.05978   -323.67125    851.55647    527.88522    1276.7064   -323.67125            0   -7.6542187            0            0            0            0            0            0 
10313000    642.24324    75280.384    562.48579   -299.05783    856.77494    557.71712    1262.8277   -299.05783            0   -6.9565206            0            0            0            0            0            0 
10314000    663.49985    75964.316    556.90178   -288.02807    848.26942    560.24135    1295.3074   -288.02807            0   -6.8938888            0            0            0            0            0            0 
10315000    735.51016    74893.413    570.71197   -284.70194    869.30501    584.60308    1387.9593   -284.70194            0   -6.9924647            0            0            0            0            0            0 
10316000    824.84446    72589.508    583.66623   -277.53764    889.03686    611.49922    1484.7155   -277.53764            0   -7.2143972            0            0            0            0            0            0 
10317000    692.54853    76919.579    568.75999   -277.90638    866.33177    588.42539    1365.3216   -277.90638            0   -6.8082737            0            0            0            0            0            0 
10318000    595.77771    76244.731    560.45296   -295.68281    853.67855    557.99574    1220.4715   -295.68281            0   -6.8685343            0            0            0            0            0            0 
10319000    692.66108    74974.616    551.17024   -294.40585    839.53916    545.13331    1302.5082   -294.40585            0   -6.9848914            0            0            0            0            0            0 
10320000    681.87213    76358.716    559.60698   -283.02067    852.38996    569.36928    1328.7113   -283.02067            0   -6.8582812            0            0            0            0            0            0 
10321000    727.72085    74560.919    608.45476   -288.72574     926.7946    638.06886    1429.3885   -288.72574            0   -7.0236466            0            0            0            0            0            0 
10322000    642.80513    74456.806    561.44649   -301.89169    855.19189    553.30019    1251.3069   -301.89169            0   -7.0334678            0            0            0            0            0            0 
10323000    664.00173    70604.996     533.7943   -321.44025    813.07225      491.632    1175.3555   -321.44025            0    -7.417174            0            0            0            0            0            0 
10324000    701.89328    76115.157    539.45573   -278.84677    821.69569    542.84892    1321.9936   -278.84677            0   -6.8802268            0            0            0            0            0            0 
10325000    650.26879    77695.906     540.0127   -269.21202    822.54407    553.33205    1290.1614   -269.21202            0   -6.7402463            0            0            0            0            0            0 
10326000     675.3044    72834.773    582.59742   -301.84236    887.40885    585.56648    1302.8886   -301.84236            0   -7.1901033            0            0            0            0            0            0 
10327000    650.50198    76952.442    553.76415     -289.355    843.49019    554.13519    1284.1756     -289.355            0   -6.8053662            0            0            0            0            0            0 
10328000    604.73441    74916.331    554.36094   -302.68725    844.39922    541.71197    1202.4314   -302.68725            0   -6.9903256            0            0            0            0            0            0 
10329000     628.1307    73856.333    502.14762   -300.17888    764.86821    464.68933    1141.2608   -300.17888            0   -7.0906519            0            0            0            0            0            0 
10330000    679.83888    75939.805    558.36805   -288.04545    850.50282    562.45737    1315.3818   -288.04545            0   -6.8961139            0            0            0            0            0            0 
10331000    793.66371    71217.257    575.92865   -308.15676    877.25102    569.09426    1393.4177   -308.15676            0   -7.3534079            0            0            0            0            0            0 
10332000    680.00952    75474.329    546.32976   -287.40742    832.16618    544.75876    1293.2559   -287.40742            0   -6.9386446            0            0            0            0            0            0 
10333000    603.07224    72779.161    521.30204   -316.29492    794.04411    477.74919    1117.8557   -316.29492            0   -7.1955974            0            0            0            0            0            0 
10334000    755.29578    73306.952    543.16378   -288.06817    827.34378    539.27561    1346.7674   -288.06817            0    -7.143791            0            0            0            0            0            0 
10335000    696.71848    76250.245     579.6511   -291.39349    882.92104    591.52755    1366.3005   -291.39349            0   -6.8680375            0            0            0            0            0            0 
10336000     603.9262    73653.278    532.46267   -314.25129    811.04391    496.79262    1145.5045   -314.25129            0   -7.1102001            0            0            0            0            0            0 
10337000    641.41257    77406.675    559.95992   -283.48141    852.92755    569.44614    1293.5348   -283.48141            0   -6.7654313            0            0            0            0            0            0 
10338000    740.78271    73766.772    582.71154   -292.23798    887.58268     595.3447    1392.2881   -292.23798            0   -7.0992607            0            0            0            0            0            0 
10339000    636.90011    77815.126    572.14046   -284.93706    871.48088    586.54383    1309.3323   -284.93706            0   -6.7299196            0            0            0            0            0            0 
10340000    766.90523    72750.653    576.31614   -289.88088    877.84124    587.96037    1401.6419   -289.88088            0   -7.1984171            0            0            0            0            0            0 
10341000    568.84717    74627.063    547.85476   -317.83004    834.48905    516.65901     1135.769   -317.83004            0   -7.0174214            0            0            0            0            0            0 
10342000    678.33057    75034.583    590.21209   -295.31414    899.00747    603.69333    1345.9921   -295.31414            0   -6.9793091            0            0            0            0            0            0 
10343000    629.85591    72404.168    572.04224   -322.24045    871.33127    549.09082    1214.1812   -322.24045            0   -7.2328647            0            0            0            0            0            0 
10344000    582.21686    80704.583    562.87879   -280.71033    857.37356    576.66323    1261.9287   -280.71033            0   -6.4889691            0            0            0            0            0            0 
10345000    733.21198    73154.931    535.97477   -288.14015    816.39352    528.25337    1310.5096   -288.14015            0   -7.1586363            0            0            0            0            0            0 
10346000    669.52722    73992.957    555.84321   -302.13604    846.65701    544.52096    1267.0154   -302.13604            0   -7.0775594            0            0            0            0            0            0 
10347000    614.89423    77080.678    555.21775   -285.85636    845.70431    559.84795    1251.0768   -285.85636            0   -6.7940443            0            0            0            0            0            0 
10348000    729.60226    71384.076     558.4224   -315.04059    850.58561    535.54502    1295.1073   -315.04059            0   -7.3362237            0            0            0            0            0            0 
10349000     627.3357    76384.915    580.10257    -292.6678    883.60872    590.94092    1289.7902    -292.6678            0   -6.8559289            0            0            0            0            0            0 
10350000    683.23545    73238.989    571.71719   -304.36945    870.83616     566.4667    1296.2411   -304.36945            0   -7.1504202            0            0            0            0            0            0 
10351000    574.43682     76326.57    534.90348   -296.16006    814.76174    518.60168     1158.033   -296.16006            0   -6.8611697            0            0            0            0            0            0 
10352000    587.31546    78034.352    559.34825   -286.93631    851.99587    565.05956    1233.4545   -286.93631            0   -6.7110129            0            0            0            0            0            0 
10353000    762.42361    72494.058    601.98948   -295.24708    916.94672    621.69964    1427.7731   -295.24708            0   -7.2238961            0            0            0            0            0            0 
[...]
14939000    719.05171    73108.713      561.359   -286.55976    855.05862    568.49887     1335.163   -286.55976            0   -7.1631619            0            0            0            0            0            0 
14940000    677.75502    74207.127    558.33999   -297.32257    850.46009    553.13753    1286.6276   -297.32257            0   -7.0571327            0            0            0            0            0            0 
14941000    604.29232    75524.252    533.96363   -295.16705    813.33017    518.16312    1183.7571   -295.16705            0    -6.934058            0            0            0            0            0            0 
14942000    636.23689    77929.737    539.53676   -279.00986    821.81913    542.80926    1265.9086   -279.00986            0    -6.720022            0            0            0            0            0            0 
14943000    738.01086     71942.15    597.95112   -311.55317    910.79552    599.24235    1373.5652   -311.55317            0   -7.2793146            0            0            0            0            0            0 
14944000    691.91663    75647.694    571.94732   -286.99472     871.1867    584.19198    1347.5449   -286.99472            0    -6.922743            0            0            0            0            0            0 
14945000    642.11587    80165.324     557.7817   -275.61182    849.60971    573.99789    1324.7142   -275.61182            0   -6.5326194            0            0            0            0            0            0 
14946000    683.45691    73714.698    518.48067   -292.60264    789.74661    497.14396    1231.8965   -292.60264            0   -7.1042758            0            0            0            0            0            0 
14947000      698.207    75908.224    588.68968    -289.3693    896.68855    607.31925    1380.2648    -289.3693            0    -6.898983            0            0            0            0            0            0 
14948000    801.62981    74194.592    573.97995   -284.02097    874.28278     590.2618     1457.667   -284.02097            0    -7.058325            0            0            0            0            0            0 
14949000     694.0579    74361.348     559.6699   -294.72383    852.48579    557.76197    1310.4566   -294.72383            0   -7.0424967            0            0            0            0            0            0 
14950000    683.05605    74145.206    517.39061   -297.82467    788.08623    490.26156    1228.8718   -297.82467            0   -7.0630263            0            0            0            0            0            0 
14951000    661.86575    76518.913    579.54809   -295.04992    882.76414    587.71422    1326.3232   -295.04992            0   -6.8439229            0            0            0            0            0            0 
14952000    710.73788     73689.58     626.2326    -299.0125     953.8737    654.86121    1418.6819    -299.0125            0   -7.1066974            0            0            0            0            0            0 
14953000    712.71239    73551.146    559.87556   -301.19304    852.79905    551.60602    1316.1098   -301.19304            0   -7.1200732            0            0            0            0            0            0 
14954000    589.23051    78622.391    554.78943   -280.53557     845.0519    564.51633    1240.1439   -280.53557            0   -6.6608194            0            0            0            0            0            0 
14955000    738.64792    74597.296    582.00508   -281.72043     886.5066    604.78617    1408.3797   -281.72043            0   -7.0202216            0            0            0            0            0            0 
14956000    653.48197    75628.244    553.39233   -292.80324    842.92384     550.1206    1270.8853   -292.80324            0   -6.9245234            0            0            0            0            0            0 
14957000    702.08898    70802.498    541.03227   -313.70829    824.09707    510.38878    1235.3531   -313.70829            0    -7.396484            0            0            0            0            0            0 
14958000     564.4298    79023.234     579.3927   -290.29846    882.52745    592.22899     1242.719   -290.29846            0   -6.6270325            0            0            0            0            0            0 
14959000    682.58016    73243.855     569.2444   -301.95472    867.06962    565.11491    1294.2378   -301.95472            0   -7.1499452            0            0            0            0            0            0 
14960000    659.18534      74350.2    553.00921   -297.82965    842.34027    544.51062    1259.2794   -297.82965            0   -7.0435526            0            0            0            0            0            0 
14961000    704.85085    76511.585    531.32463   -279.20232    809.31046    530.10814     1316.611   -279.20232            0   -6.8445784            0            0            0            0            0            0 
14962000    696.39548    75673.059    563.12568   -286.49415    857.74962    571.25547    1339.8072   -286.49415            0   -6.9204225            0            0            0            0            0            0 
14963000    820.94456      72147.1    553.02347   -280.22479    842.36199     562.1372     1425.928   -280.22479            0   -7.2586361            0            0            0            0            0            0 
14964000     614.0328    74126.893     560.5216   -308.73552    853.78311    545.04758    1208.8568   -308.73552            0   -7.0647712            0            0            0            0            0            0 
14965000    622.42612     76761.54    541.04171   -281.37736    824.11145    542.73409    1239.5329   -281.37736            0   -6.8222908            0            0            0            0            0            0 
14966000    702.11825    73942.661    549.42885    -295.9907    836.88669    540.89599    1298.0448    -295.9907            0   -7.0823735            0            0            0            0            0            0 
14967000    781.90459     75647.16    602.08254   -272.46581    917.08847    644.62266    1507.2481   -272.46581            0   -6.9227919            0            0            0            0            0            0 
14968000    787.11201    74224.343    552.10453   -279.83845    840.96228    561.12383    1413.1615   -279.83845            0   -7.0554958            0            0            0            0            0            0 
14969000    680.19786     74263.71    552.96671   -301.73932    842.27554    540.53622    1277.2313   -301.73932            0   -7.0517558            0            0            0            0            0            0 
14970000    737.99721    73885.445      567.809   -286.29428    864.88322    578.58895     1373.813   -286.29428            0   -7.0878581            0            0            0            0            0            0 
14971000    743.48146    73993.544    569.98835   -293.48582    868.20279    574.71697    1377.0227   -293.48582            0   -7.0775032            0            0            0            0            0            0 
14972000    710.72136    78821.406    563.69724   -265.37265    858.62021    593.24757    1410.2426   -265.37265            0   -6.6440015            0            0            0            0            0            0 
14973000    777.15921    71652.444    568.54131   -292.81452    865.99868    573.18416     1385.298   -292.81452            0   -7.3087465            0            0            0            0            0            0 
14974000    637.15198      76562.2    535.91245   -277.82268    816.29859    538.47592    1249.9078   -277.82268            0   -6.8400536            0            0            0            0            0            0 
14975000    695.67783    76825.544    571.24028   -276.20217    870.10973    593.90756    1373.3601   -276.20217            0   -6.8166071            0            0            0            0            0            0 
14976000    721.08046    73650.656    516.94605   -280.21252    787.40909    507.19656     1281.723   -280.21252            0   -7.1104532            0            0            0            0            0            0 
14977000    657.89503    73976.007    543.11025   -301.32777    827.26224    525.93448    1235.7139   -301.32777            0   -7.0791811            0            0            0            0            0            0 
14978000     609.4352    74757.025    592.35906   -313.29532    902.27773    588.98241    1253.4219   -313.29532            0   -7.0052219            0            0            0            0            0            0 
14979000    673.70167    73208.773    524.92517   -297.20337    799.56283    502.35947    1221.6538   -297.20337            0   -7.1533714            0            0            0            0            0            0 
14980000    702.95956    70132.979    536.82956   -319.46377    817.69553    498.23176    1217.2311   -319.46377            0    -7.467094            0            0            0            0            0            0 
14981000    689.23606    76474.743     550.8893   -289.28696    839.11124    549.82428    1318.5332   -289.28696            0   -6.8478758            0            0            0            0            0            0 
14982000    669.99244    78596.556    582.90082   -277.97354    887.87099    609.89745    1377.8764   -277.97354            0   -6.6630088            0            0            0            0            0            0 
14983000    708.64173    71989.322    549.17083   -308.75201    836.49367    527.74166    1271.7378   -308.75201            0   -7.2745447            0            0            0            0            0            0 
14984000    642.27407     73515.26    550.52153   -313.61151    838.55105    524.93955    1213.5503   -313.61151            0   -7.1235488            0            0            0            0            0            0 
14985000    782.91369    76605.841     595.1337    -270.4025    906.50405    636.10155    1510.7865    -270.4025            0   -6.8361569            0            0            0            0            0            0 
14986000    773.91202    76659.979    584.68975   -274.97261    890.59588    615.62327    1480.8624   -274.97261            0   -6.8313291            0            0            0            0            0            0 
14987000    655.74326    72345.925    573.18898   -310.04505    873.07798    563.03294    1254.9018   -310.04505            0   -7.2386875            0            0            0            0            0            0 
14988000    658.51564    76975.126    551.10153    -285.8482    839.43451    553.58631    1292.8381    -285.8482            0   -6.8033607            0            0            0            0            0            0 
14989000    721.18876    74408.864    529.50314    -274.3605    806.53598    532.17548    1314.7929    -274.3605            0   -7.0379995            0            0            0            0            0            0 
14990000    560.91292    76960.471     532.9268   -293.61543    811.75088    518.13544    1147.6982   -293.61543            0   -6.8046562            0            0            0            0            0            0 
14991000     634.3061    74501.749    573.47735   -313.32966    873.51722    560.18756    1249.3812   -313.32966            0   -7.0292248            0            0            0            0            0            0 
14992000    655.72869    70795.491    532.85006   -321.95247    811.63398    489.68152     1166.708   -321.95247            0   -7.3972161            0            0            0            0            0            0 
14993000    633.84567     76168.43    588.95804   -306.02488    897.09731    591.07243    1295.1726   -306.02488            0   -6.8754147            0            0            0            0            0            0 
14994000     712.1782    73557.489    529.28935   -284.98048    806.21033    521.22985    1285.2265   -284.98048            0   -7.1194592            0            0            0            0            0            0 
14995000    746.15825    72701.448    529.94402    -293.7514    807.20752    513.45612    1304.5898    -293.7514            0    -7.203289            0            0            0            0            0            0 
14996000    754.76024    71666.869    553.51235   -305.40993    843.10665    537.69672    1326.5629   -305.40993            0   -7.3072753            0            0            0            0            0            0 
14997000    689.84083     76880.51     553.7077   -272.22415    843.40421    571.18006    1344.6457   -272.22415            0   -6.8117335            0            0            0            0            0            0 
14998000    721.78234    75508.707    579.35023   -283.65044    882.46276    598.81232    1393.6513   -283.65044            0   -6.9354855            0            0            0            0            0            0 
14999000    601.12946     76394.89    541.37604   -292.53347     824.6207    532.08723    1201.8303   -292.53347            0   -6.8550337            0            0            0            0            0            0 
15000000    650.96882    80041.545    519.86039   -262.80822    791.84819    529.03997    1288.9314   -262.80822            0   -6.5427216            0            0            0            0            0            0 
Loop time of 1233.31 on 8 procs for 5000000 steps with 512 atoms

Pair  time (%) = 629.98 (51.0803)
Bond  time (%) = 0.446199 (0.0361789)
Neigh time (%) = 32.7197 (2.65299)
Comm  time (%) = 406.803 (32.9846)
Outpt time (%) = 0.290448 (0.0235503)
Other time (%) = 163.073 (13.2223)

Nlocal:    64 ave 70 max 59 min
Histogram: 1 1 2 1 0 1 0 0 0 2
Nghost:    1023.5 ave 1044 max 1011 min
Histogram: 2 0 1 2 1 0 1 0 0 1
Neighs:    4137.38 ave 4846 max 3428 min
Histogram: 2 0 1 0 1 1 1 0 0 2

Total # of neighbors = 33099
Ave neighs/atom = 64.6465
Ave special neighs/atom = 0
Neighbor list builds = 109262
Dangerous builds = 0

Averages
Group Pressure(MPa) Volume(m3) Temperature(K) PE(J) KE(J) ET(J) ET^2(J) H(J) H^2(J^2) V^2(m6) V*H(m3*J) Hconf(J) Uext*Hconf(J^2) V*Hconf(m3*J) Uext(J)
Block1 70.069322034959810708 7.4833663632149955849e-26 560.47261385466629235 -2.0248687747777868357e-18 5.9313060510587050203e-18 3.9064372762809266587e-18 1.5316117342929166298e-35 9.1417741427235273486e-18 8.3935090010218005593e-35 5.6055203823702098854e-51 6.8400787865825418409e-43 3.2104680916648311875e-18 -6.4730670848986945122e-36 2.4015885463310149627e-43 -2.0248687747777868357e-18
Block2 69.827478740770644094 7.4941686992185398926e-26 560.26233130032596819 -2.0217613057591439036e-18 5.9290806966771536297e-18 3.9073193909180031779e-18 1.5322495682395981766e-35 9.1326200341219116183e-18 8.3768753537671554965e-35 5.6217073078579740784e-51 6.843632967921830054e-43 3.2035393374447826406e-18 -6.4478134747664664599e-36 2.4002239025038025113e-43 -2.0217613057591439036e-18
Block3 70.172655811576348128 7.4863442926375883196e-26 559.91278315597867277 -2.019985540617922413e-18 5.9253815381947189592e-18 3.9053959975768084869e-18 1.5308874000629638672e-35 9.1511166592244995979e-18 8.4084954278840872846e-35 5.610215182256898874e-51 6.8507853146378944425e-43 3.2257351210297644609e-18 -6.4869527368066185044e-36 2.4146781354193991591e-43 -2.019985540617922413e-18
Block4 69.943913948595067609 7.4874547373459395213e-26 560.15476394704194263 -2.023194671612151416e-18 5.9279423450830431417e-18 3.9047476734708824812e-18 1.5302397071242232808e-35 9.1348548058596589716e-18 8.3803655259099917395e-35 5.6112515720502622542e-51 6.8391950963547597841e-43 3.206912460776597341e-18 -6.4595147504813843929e-36 2.4009341909109483205e-43 -2.023194671612151416e-18
Block5 70.386422536928421323 7.480544533837296084e-26 560.08611628132700844 -2.0211904252776410724e-18 5.9272158683472155962e-18 3.906025443069564509e-18 1.5310220641398325286e-35 9.1633376229024588389e-18 8.4286155518216306435e-35 5.601357174070307767e-51 6.8542500545900987143e-43 3.2361217545552509464e-18 -6.5140913864395990543e-36 2.4201155422025934989e-43 -2.0211904252776410724e-18
Ave_blocks 70.079958614566066899 7.4863757252508725692e-26 560.1777217078679314 -2.0222001436089291281e-18 5.9281852998721674235e-18 3.9059851562632367546e-18 1.5312020947719072173e-35 9.1447406529664125077e-18 8.3975721720809322894e-35 5.6100103237211305718e-51 6.8455884440174248078e-43 3.2165553530942454694e-18 -6.4762878866785515157e-36 2.4075080634735515312e-43 -2.0222001436089291281e-18
Stdev_blocks 0.19229159143338314664 4.5815881861198529436e-29 0.1861350104683835438 1.6868464328036094062e-21 1.9698084912860337015e-21 8.7916884274938884383e-22 6.8156275946182929858e-39 1.131318084199396717e-20 1.909945163028276613e-37 6.8328423740938186971e-54 5.9512363102882213038e-46 1.2381994934824302762e-20 2.3001510464187306127e-38 8.2664857867805406618e-46 1.6868464328036094062e-21






Properties
Group rho(kg/m3) Cp(J/K) Cp_conf(J/K) Cp_id(J/K) Cp2(J/K) kT(1/Pa) aP(1/K) aP2(1/K) Cv(J/K) uJT(K/Pa) sos(m/s) Cv2(J/K) uJT2(K/Pa) sos2(m/s) CvNVT(J/K)
Block1 182.26067652152985943 8.3710714240525880333e-20 -2.1700145784877432655e-21 4.2634940897268019208e-20 4.0464926318780275942e-20 9.3997706089752945778e-09 -0.00032220229814544729813 -0.00028418754331593535463 8.3247489852274701629e-20 -1.0553911026111615916e-06 766.12535135330074354 4.0104559974227842155e-20 -2.1439090026918664288e-06 767.42754397706278269 1.2880981351322764819e-20
Block2 181.99796011534272111 8.3992614937721060659e-20 -1.28863154880184467e-21 4.2624252452241260296e-20 4.1335620903439415626e-20 9.403008074762146268e-09 -0.00015596771269841861146 -0.00017320035240182233161 8.3883993014866499558e-20 -9.7020796496225052763e-07 764.91704528624268278 4.1201670007484086446e-20 -1.988934704026223108e-06 765.6638774083600083 1.2771982157087546502e-20
Block3 182.18817659232826145 7.9017846787098766916e-20 -7.2607886391560627245e-22 4.2606483575344714849e-20 4.1880404711429110082e-20 9.8148176728844937622e-09 -1.7184078360132839115e-05 -6.7349185866711380505e-05 7.9016585655429843468e-20 -9.5654021198601468113e-07 747.82891448550901714 4.1861032792483762656e-20 -1.8549610300356735462e-06 747.99596075990052668 1.3112592981386089174e-20
Block4 182.16115674329836338 8.2657894203300870758e-20 -8.1198330531296958964e-22 4.2618784616427534293e-20 4.1806801311114566208e-20 8.7274299510207358156e-09 -0.0001498599733182147788 -6.9982585692533299518e-05 8.2549967931752424356e-20 -9.8187687227307308285e-07 793.62006676839200736 4.1783265138452287842e-20 -1.8611734924133938448e-06 793.32512578610487708 1.2774999188900035438e-20
Block5 182.32942934147249048 7.3746411149997032164e-20 -2.0026136018302133312e-21 4.2615295030704828408e-20 4.0612681428874616582e-20 9.5124093662849214752e-09 -0.00013132119093771111576 -0.00020980792152532447888 7.3670454270681985658e-20 -1.0889678907525155702e-06 759.71398130605905408 4.041879775030813738e-20 -2.0583686665298941831e-06 761.14164456450532725 1.2280145453813323358e-20
Ave_blocks 182.18747986279433348 8.0625096263728717351e-20 -1.3998643796696754634e-21 4.2619951314397271411e-20 4.1220086934727596888e-20 9.3714871347855187106e-09 -0.00015530705069198490697 -0.00016090551776046536632 8.0473698145001086119e-20 -1.0105968085170030483e-06 766.44107183990058729 4.1073865132591222092e-20 -1.9814693791394101798e-06 767.1108304991867044 1.2764140226501952159e-20
Stdev_blocks 0.11146168137365512762 3.8702208607662406439e-21 5.947103118400228333e-22 9.461601751890274328e-24 5.8869524000656487213e-22 3.558101240465693161e-10 9.7506315387970932053e-05 8.3379653022956648164e-05 3.7958459342515880995e-21 5.2013006766037220831e-08 15.051818827769674058 7.0822046631029098923e-22 1.120993537294886236e-07 14.767482411951863952 2.7184610490692225247e-22






