LAMMPS (28 Oct 2012)
Scanning data file ...
Reading data file ...
  orthogonal box = (0 0 0) to (100 100 100)
  2 by 2 by 2 MPI processor grid
  512 atoms
Finding 1-2 1-3 1-4 neighbors ...
  0 = max # of 1-2 neighbors
  0 = max # of 1-3 neighbors
  0 = max # of 1-4 neighbors
  1 = max # of special neighbors
WARNING: Resetting reneighboring criteria during minimization (min.cpp:173)
Setting up minimization ...
Memory usage per processor = 4.05499 Mbytes
Step Temp E_pair E_mol TotEng Press 
       0       360.15    1409.7233            0    1958.3016    437.59323 
     701       360.15   -217.27527            0    331.30303    24.848329 
Loop time of 0.0481131 on 8 procs for 701 steps with 512 atoms

Minimization stats:
  Stopping criterion = energy tolerance
  Energy initial, next-to-last, final = 
         1409.72334813     -217.256630745     -217.275265106
  Force two-norm initial, final = 5034.49 0.337455
  Force max component initial, final = 2457.89 0.147661
  Final line search alpha, max atom move = 0.254892 0.0376377
  Iterations, force evaluations = 701 710

Pair  time (%) = 0.00892481 (18.5496)
Bond  time (%) = 6.01113e-05 (0.124937)
Neigh time (%) = 0.00314081 (6.52797)
Comm  time (%) = 0.0182331 (37.8964)
Outpt time (%) = 0 (0)
Other time (%) = 0.0177543 (36.9011)

Nlocal:    64 ave 74 max 52 min
Histogram: 1 0 0 1 1 2 0 2 0 1
Nghost:    235.125 ave 266 max 224 min
Histogram: 4 0 2 0 0 1 0 0 0 1
Neighs:    316.25 ave 371 max 226 min
Histogram: 1 0 0 1 1 1 0 1 0 3

Total # of neighbors = 2530
Ave neighs/atom = 4.94141
Ave special neighs/atom = 0
Neighbor list builds = 60
Dangerous builds = 0
Setting up run ...
Memory usage per processor = 3.36354 Mbytes
Step Temp E_pair E_mol TotEng Press Volume 
     701       360.15   -217.27527            0    331.30303    24.848329      1000000 
 5000701    344.59133   -447.98282            0     76.89661    634.61436    53322.966 
Loop time of 1580 on 8 procs for 5000000 steps with 512 atoms

Pair  time (%) = 909.875 (57.5869)
Bond  time (%) = 0.463522 (0.0293368)
Neigh time (%) = 34.5037 (2.18377)
Comm  time (%) = 490.694 (31.0565)
Outpt time (%) = 3.80874e-05 (2.41059e-06)
Other time (%) = 144.468 (9.1435)

Nlocal:    64 ave 73 max 57 min
Histogram: 1 1 0 2 2 0 0 0 1 1
Nghost:    1333.62 ave 1370 max 1310 min
Histogram: 3 1 0 1 0 0 1 0 0 2
Neighs:    6188.62 ave 7117 max 5563 min
Histogram: 2 1 1 0 1 1 0 0 0 2

Total # of neighbors = 49509
Ave neighs/atom = 96.6973
Ave special neighs/atom = 0
Neighbor list builds = 87766
Dangerous builds = 14
Setting up run ...
Memory usage per processor = 3.96756 Mbytes
Step Press Volume Temp PotEng KinEng TotEng Enthalpy E_vdwl E_coul E_tail E_long E_bond E_angle E_dihed E_impro E_mol 
10000000    634.61436    53322.966    344.59133   -447.98282    524.87943     76.89661     570.4113   -447.98282            0    -9.821088            0            0            0            0            0            0 
10001000    761.10994    49129.754    362.89359   -486.77602    552.75731    65.981289    611.32194   -486.77602            0   -10.659315            0            0            0            0            0            0 
10002000    586.42254    51742.151    341.60611   -477.70363    520.33236    42.628722    485.14681   -477.70363            0    -10.12114            0            0            0            0            0            0 
10003000    731.69073    51323.142    367.31263   -464.34262    559.48837    95.145746    642.81288   -464.34262            0    -10.20377            0            0            0            0            0            0 
10004000     720.2704    50661.421    372.71386   -473.87939     567.7155    93.836104    626.00418   -473.87939            0   -10.337048            0            0            0            0            0            0 
10005000    613.42131    52480.214    373.91918    -474.9082    569.55142    94.643223    564.13755    -474.9082            0   -9.9787997            0            0            0            0            0            0 
10006000    667.21011     51542.94    366.65998    -463.3052    558.49426    95.189063    596.73151    -463.3052            0   -10.160258            0            0            0            0            0            0 
10007000    737.58095     51443.74    355.00744   -460.17878    540.74519    80.566406     633.9396   -460.17878            0    -10.17985            0            0            0            0            0            0 
10008000    747.89762    50912.008    373.83179   -467.34884    569.41832    102.06948    657.38302   -467.34884            0   -10.286169            0            0            0            0            0            0 
10009000    630.98806    51339.139    353.40757   -472.24026    538.30826    66.068005    538.50686   -472.24026            0   -10.200591            0            0            0            0            0            0 
10010000    668.97968    49377.673    364.65391   -496.08907    555.43862    59.349554    541.09701   -496.08907            0   -10.605796            0            0            0            0            0            0 
10011000    592.27566    51108.921    368.30591   -479.76526    561.00133    81.236074    522.70129   -479.76526            0   -10.246539            0            0            0            0            0            0 
10012000    631.28389    52281.506    356.02064   -465.03751    542.28848    77.250969    558.58735   -465.03751            0   -10.016727            0            0            0            0            0            0 
10013000    668.36404    50779.486    352.35038   -475.30475    536.69796    61.393209    556.36138   -475.30475            0   -10.313014            0            0            0            0            0            0 
10014000    758.82456    50713.922    364.41674   -473.55756    555.07737    81.519813    642.75445   -473.55756            0   -10.326347            0            0            0            0            0            0 
10015000    757.24424     49830.62    382.65071   -486.27561    582.85125    96.575639     646.8866   -486.27561            0   -10.509393            0            0            0            0            0            0 
10016000    659.57466    51408.151    354.71816   -478.97848    540.30455    61.326061    555.83237   -478.97848            0   -10.186897            0            0            0            0            0            0 
10017000    577.57181    50606.456     360.7614   -491.33503    549.50957     58.17454    484.44751   -491.33503            0   -10.348275            0            0            0            0            0            0 
10018000    706.00666    51250.347    379.36777    -471.5151    577.85069    106.33559    634.02879    -471.5151            0   -10.218263            0            0            0            0            0            0 
10019000    693.65774    52385.443      371.077   -455.53733    565.22223     109.6849    639.63106   -455.53733            0   -9.9968525            0            0            0            0            0            0 
10020000    640.67377    49880.787    350.08967   -483.41778    533.25447    49.836691     515.9013   -483.41778            0   -10.498823            0            0            0            0            0            0 
10021000    716.17659    50149.254    341.02146   -478.31296    519.44182    41.128862    564.92282   -478.31296            0   -10.442619            0            0            0            0            0            0 
10022000    646.96499    50705.693    372.98106   -482.11893    568.12248    86.003556    564.42803   -482.11893            0   -10.328023            0            0            0            0            0            0 
10023000    618.27578    54954.221    341.00777   -426.06545    519.42097    93.355528    588.87323   -426.06545            0   -9.5295601            0            0            0            0            0            0 
10024000    801.09498    49242.564    367.91313    -486.2608    560.40305     74.14225    649.45044    -486.2608            0   -10.634896            0            0            0            0            0            0 
10025000    836.65784    50258.813    364.37369    -476.2599    555.01179    78.751897     691.9997    -476.2599            0   -10.419855            0            0            0            0            0            0 
10026000    547.98926    53196.997    362.35242   -463.02454      551.933    88.908464    514.05148   -463.02454            0   -9.8443442            0            0            0            0            0            0 
10027000    804.46137    48241.215    394.57861   -499.83101    601.01975    101.18873    667.16643   -499.83101            0   -10.855646            0            0            0            0            0            0 
10028000    742.35436    52096.539    370.49991   -465.06652    564.34322      99.2767    663.29868   -465.06652            0    -10.05229            0            0            0            0            0            0 
10029000    683.16626    50578.546    370.15574    -478.2875    563.81898    85.531474    589.45965    -478.2875            0   -10.353986            0            0            0            0            0            0 
10030000    636.51259    51717.357    345.86424   -464.40371    526.81831    62.414601    542.50079   -464.40371            0   -10.125992            0            0            0            0            0            0 
10031000    628.07422    51708.416    361.61011   -467.84375    550.80232     82.95857    556.59827   -467.84375            0   -10.127743            0            0            0            0            0            0 
10032000    762.06202    50189.511    357.35617   -474.67804    544.32275    69.644715    627.44557   -474.67804            0   -10.434243            0            0            0            0            0            0 
10033000    763.10791    52325.342     374.7353   -445.80406    570.79454    124.99048    707.32686   -445.80406            0   -10.008335            0            0            0            0            0            0 
10034000    687.26695    51905.215    379.73236   -469.79772    578.40603    108.60831    628.85862   -469.79772            0   -10.089343            0            0            0            0            0            0 
10035000    771.38823    51011.223     374.6284   -463.06384    570.63171    107.56787    681.43934   -463.06384            0   -10.266163            0            0            0            0            0            0 
10036000    582.31584    50959.593    366.41441   -485.30215     558.1202    72.818052    505.59134   -485.30215            0   -10.276564            0            0            0            0            0            0 
10037000    637.21677    51012.543    363.98928   -482.28923    554.42626    72.137034     546.2044   -482.28923            0   -10.265898            0            0            0            0            0            0 
10038000    649.35438    50594.471    356.72701   -485.51622    543.36442    57.848203    536.98632   -485.51622            0   -10.350727            0            0            0            0            0            0 
10039000    724.87328    49896.627    348.18383   -475.72755     530.3515    54.623946     582.1078   -475.72755            0    -10.49549            0            0            0            0            0            0 
10040000    669.75578    52014.426    358.98252   -455.87221    546.79999    90.927788    598.98915   -455.87221            0    -10.06816            0            0            0            0            0            0 
10041000    799.86248    50548.528    379.05707    -469.9127    577.37742    107.46472    697.12209    -469.9127            0   -10.360134            0            0            0            0            0            0 
10042000    745.28573    51380.106    376.56251   -469.42127    573.57774    104.15647    662.61855   -469.42127            0   -10.192457            0            0            0            0            0            0 
10043000    775.60845    50520.426    349.82384   -471.59395    532.84956    61.255608    632.71507   -471.59395            0   -10.365897            0            0            0            0            0            0 
10044000    581.52292    52317.414    333.71954   -467.35965    508.31958    40.959933    484.65949   -467.35965            0   -10.009851            0            0            0            0            0            0 
10045000    824.82942    51552.167      388.171   -462.82765    591.25971    128.43206    748.56809   -462.82765            0   -10.158439            0            0            0            0            0            0 
10046000    733.36152    50788.647    372.16466   -470.14273    566.87895    96.736228    639.93735   -470.14273            0   -10.311154            0            0            0            0            0            0 
10047000    721.54948    48648.038    349.32321   -497.36323    532.08699     34.72376    546.64993   -497.36323            0   -10.764865            0            0            0            0            0            0 
10048000    725.83171    51220.289    367.28295   -467.60212    559.44317    91.841047    634.03398   -467.60212            0    -10.22426            0            0            0            0            0            0 
10049000    657.15687    52039.784    356.33488   -464.34053    542.76713    78.426599    577.17375   -464.34053            0   -10.063254            0            0            0            0            0            0 
10050000    648.60198    52080.139     369.3158   -464.69803    562.53959    97.841563    590.47774   -464.69803            0   -10.055456            0            0            0            0            0            0 
10051000    758.68531    51132.613    372.09896   -467.98076    566.77887    98.798108    664.56242   -467.98076            0   -10.241791            0            0            0            0            0            0 
10052000    643.37194    52074.721    382.75054   -470.29136     583.0033    112.71194    601.32487   -470.29136            0   -10.056502            0            0            0            0            0            0 
10053000     654.4787    50262.446    362.38856   -486.41474    551.98806    65.573328    545.32337   -486.41474            0   -10.419102            0            0            0            0            0            0 
10054000    587.95219    53441.242    349.24456   -448.12832    531.96719    83.838873     542.0804   -448.12832            0    -9.799352            0            0            0            0            0            0 
10055000    718.01511    51149.743    369.53206   -474.23802    562.86899    88.630966    624.24621   -474.23802            0   -10.238361            0            0            0            0            0            0 
10056000    597.92207    50183.659    362.43789   -493.92904    552.06319    58.134151    495.73968   -493.92904            0    -10.43546            0            0            0            0            0            0 
10057000    650.65858    52785.049    370.61098   -455.33228     564.5124    109.18012    610.06737   -455.33228            0   -9.9211718            0            0            0            0            0            0 
10058000    701.04026    50192.687    375.01672   -480.82678    571.22319    90.396411     603.5641   -480.82678            0   -10.433583            0            0            0            0            0            0 
10059000    770.72107    50388.825     355.7058   -465.23267    541.80891    76.576237    642.95552   -465.23267            0    -10.39297            0            0            0            0            0            0 
10060000    750.65298    50773.563    358.19135   -468.81325     545.5949    76.781648    632.62542   -468.81325            0   -10.314217            0            0            0            0            0            0 
10061000    609.48294    50328.814    353.41202   -488.85682    538.31505     49.45823    496.81513   -488.85682            0   -10.405362            0            0            0            0            0            0 
10062000    659.14515    52435.844    347.95387   -457.17737    530.00122    72.823851     576.8873   -457.17737            0   -9.9872437            0            0            0            0            0            0 
10063000    694.04765    49863.755    363.28309   -483.61327    553.35059    69.737325    574.45691   -483.61327            0   -10.502409            0            0            0            0            0            0 
10064000     632.2343    49506.961    379.75948   -496.39927    578.44734    82.048077    538.52645   -496.39927            0   -10.578099            0            0            0            0            0            0 
10065000    700.40201    49548.737    372.37111   -488.85291    567.19341      78.3405    584.46326   -488.85291            0    -10.56918            0            0            0            0            0            0 
10066000    646.88265    53057.115    339.37559   -454.93557    516.93485    61.999272    562.54646   -454.93557            0   -9.8702981            0            0            0            0            0            0 
10067000    840.11916    50265.471    343.38278   -455.30439    523.03856    67.734179    683.60061   -455.30439            0   -10.418475            0            0            0            0            0            0 
10068000    600.78521    52177.657    359.10605   -470.10217    546.98815    76.885978    534.05805   -470.10217            0   -10.036663            0            0            0            0            0            0 
10069000    609.78397    51028.589    342.12208    -476.8029    521.11827     44.31537    498.11637    -476.8029            0    -10.26267            0            0            0            0            0            0 
10070000    660.05769    51260.534    348.22332   -466.57421    530.41165    63.837442     557.2849   -466.57421            0   -10.216233            0            0            0            0            0            0 
10071000    671.65573     52035.18     339.4414   -452.99542    517.03509    64.039667    573.74559   -452.99542            0   -10.064144            0            0            0            0            0            0 
10072000    440.23903    53559.293    338.92789   -474.29078     516.2529    41.962122    385.83606   -474.29078            0   -9.7777532            0            0            0            0            0            0 
10073000    535.14062    51612.758      360.138   -479.29971    548.56001    69.260299    472.07088   -479.29971            0   -10.146514            0            0            0            0            0            0 
10074000    730.75818    50177.516    371.17787   -481.14167    565.37588    84.234209    618.99398   -481.14167            0   -10.436737            0            0            0            0            0            0 
10075000      664.254    52182.416    336.20335   -465.43595     512.1029    46.666956     552.1822   -465.43595            0   -10.035747            0            0            0            0            0            0 
10076000    611.56201    52218.331    358.29856   -470.58534    545.75819    75.172849    540.90838   -470.58534            0   -10.028845            0            0            0            0            0            0 
10077000    664.10441    49836.833    363.36573   -493.68957    553.47647    59.786897    542.47066   -493.68957            0   -10.508082            0            0            0            0            0            0 
10078000    614.65512     50229.77    366.65468   -485.43121    558.48618    73.054968    523.32038   -485.43121            0    -10.42588            0            0            0            0            0            0 
10079000     680.8183    51881.551     353.7573   -462.08397    538.84097    76.757003    591.89082   -462.08397            0   -10.093945            0            0            0            0            0            0 
10080000    684.35768    51865.949    346.55269   -459.22833    527.86696    68.638623    586.29475   -459.22833            0   -10.096982            0            0            0            0            0            0 
10081000    819.04903     50272.34    387.33792   -473.41209    589.99077    116.57868    717.08128   -473.41209            0   -10.417051            0            0            0            0            0            0 
10082000    634.72536    51744.041    357.15447   -470.13309    544.01553    73.882439    552.86763   -470.13309            0    -10.12077            0            0            0            0            0            0 
10083000     617.9822    50869.383    372.63114   -488.68712    567.58949     78.90237    537.36963   -488.68712            0   -10.294789            0            0            0            0            0            0 
10084000    751.56211    51029.948    359.67106   -474.51266    547.84878    73.336117    632.66325   -474.51266            0   -10.262396            0            0            0            0            0            0 
10085000    647.02449    50966.433    379.11376   -485.04366    577.46379    92.420131      573.349   -485.04366            0   -10.275185            0            0            0            0            0            0 
10086000    661.28407    50668.543    382.86674   -485.33293     583.1803    97.847371    586.50239   -485.33293            0   -10.335595            0            0            0            0            0            0 
10087000    619.25333    53847.415    337.45346   -451.68323    514.00706    62.323829    548.62924   -451.68323            0   -9.7254351            0            0            0            0            0            0 
10088000    876.83761    49501.922    340.63062   -467.16002    518.84649    51.686468    684.70601   -467.16002            0   -10.579176            0            0            0            0            0            0 
10089000    572.56746    52540.312    375.52613   -476.89654    571.99912    95.102588    533.83044   -476.89654            0   -9.9673855            0            0            0            0            0            0 
10090000    738.01651    50059.802    365.21128   -475.66878     556.2876    80.618826    619.42317   -475.66878            0   -10.461279            0            0            0            0            0            0 
10091000     711.9128    49816.335    359.99079   -478.78001    548.33579    69.555779    586.77477   -478.78001            0   -10.512406            0            0            0            0            0            0 
10092000    745.57183    51455.829    368.97003   -466.91318    562.01291     95.09973    654.59956   -466.91318            0   -10.177458            0            0            0            0            0            0 
10093000    704.99897    51436.129    388.33817   -478.19281    591.51434    113.32153     642.1717   -478.19281            0   -10.181356            0            0            0            0            0            0 
10094000    635.85887    51601.217    356.75956   -467.97597    543.41399    75.438023    553.95414   -467.97597            0   -10.148783            0            0            0            0            0            0 
10095000    713.53935    51511.416    348.89226   -457.33927    531.43058     74.09131    610.13144   -457.33927            0   -10.166476            0            0            0            0            0            0 
10096000    557.80886     54118.93    345.58108   -448.16668    526.38701    78.220335    518.48162   -448.16668            0   -9.6766427            0            0            0            0            0            0 
10097000     915.3463    49096.304    376.43057   -473.41696    573.37676      99.9598    755.36536   -473.41696            0   -10.666578            0            0            0            0            0            0 
10098000    617.71313    51935.456    377.68073   -476.75823      575.281    98.522767    566.39435   -476.75823            0   -10.083469            0            0            0            0            0            0 
10099000    602.28304    50493.604    352.28972   -486.57408    536.60557    50.031488    493.55116   -486.57408            0   -10.371404            0            0            0            0            0            0 
10100000    619.13559    51932.889    335.13449   -468.75656    510.47482    41.718261    510.64407   -468.75656            0   -10.083967            0            0            0            0            0            0 
10101000    631.01883    51492.478    358.87224   -479.10404    546.63203    67.527984    541.40102   -479.10404            0   -10.170214            0            0            0            0            0            0 
10102000    888.82153    48700.075    383.22802   -482.15425    583.73059    101.57634    732.85352   -482.15425            0   -10.753362            0            0            0            0            0            0 
10103000    667.11805    52111.973    368.06681   -462.11428    560.63713    98.522847    605.53235   -462.11428            0   -10.049313            0            0            0            0            0            0 
10104000    686.29553    48824.254    342.41739   -502.28329     521.5681    19.284811    507.96268   -502.28329            0   -10.726012            0            0            0            0            0            0 
10105000    640.03674    53552.847    360.44554   -452.74588    549.02846     96.28258    596.15982   -452.74588            0     -9.77893            0            0            0            0            0            0 
10106000    584.95597    50735.752    351.94257   -496.28303    536.07679    39.793762     472.6196   -496.28303            0   -10.321904            0            0            0            0            0            0 
10107000    688.77476    51100.384    351.92512   -466.18144    536.05021    69.868771    583.17588   -466.18144            0   -10.248251            0            0            0            0            0            0 
10108000    656.01681    51288.186    360.79547   -476.14841    549.56147    73.413055    564.10417   -476.14841            0   -10.210725            0            0            0            0            0            0 
10109000    664.03099    51956.611    371.90133   -465.68741    566.47786    100.79045    603.94923   -465.68741            0   -10.079363            0            0            0            0            0            0 
10110000    851.06781    50418.619     367.6807   -463.86874    560.04902    96.180276    721.97371   -463.86874            0   -10.386828            0            0            0            0            0            0 
10111000    797.61583    49870.431    358.56562   -470.42889    546.16497    75.736083    655.84932   -470.42889            0   -10.501003            0            0            0            0            0            0 
10112000    655.49671    52826.842    340.98637   -450.04138    519.38837    69.346994    574.35825   -450.04138            0   -9.9133229            0            0            0            0            0            0 
10113000    770.74367    51104.658    344.95113   -456.48826    525.42747    68.939206    643.38142   -456.48826            0   -10.247394            0            0            0            0            0            0 
10114000    457.54597    53387.776    373.01454   -473.08405    568.17349    95.089438    451.33745   -473.08405            0   -9.8091657            0            0            0            0            0            0 
10115000    780.43022    48255.693    366.50742    -494.1366    558.26188    64.125283    613.36069    -494.1366            0   -10.852389            0            0            0            0            0            0 
10116000    661.26075    51616.211    370.88812   -467.98858    564.93454    96.945959    594.72288   -467.98858            0   -10.145835            0            0            0            0            0            0 
10117000    692.05062    48542.015    398.71659   -513.48398    607.32269    93.838709    583.76591   -513.48398            0   -10.788377            0            0            0            0            0            0 
10118000    703.20591    50017.302    363.71014   -487.07198    554.00109    66.929108    579.88339   -487.07198            0   -10.470168            0            0            0            0            0            0 
10119000    649.22319    53112.933     363.3043   -449.42137    553.38291    103.96154     606.8483   -449.42137            0   -9.8599252            0            0            0            0            0            0 
10120000    650.07358    50534.647    366.43145   -491.40662    558.14616     66.73954    545.84116   -491.40662            0    -10.36298            0            0            0            0            0            0 
10121000    595.18272    51291.893    369.93079   -479.24518    563.47633    84.231152    529.45142   -479.24518            0   -10.209987            0            0            0            0            0            0 
10122000    663.22868    52307.043    334.22217   -460.33626    509.08518    48.748917    554.68932   -460.33626            0   -10.011836            0            0            0            0            0            0 
10123000    666.00602    49466.684    340.30964   -487.48673    518.35757    30.870847    511.34147   -487.48673            0   -10.586712            0            0            0            0            0            0 
10124000    569.47226    53091.442    365.74259    -462.5217    557.09689    94.575197    535.50858    -462.5217            0   -9.8639164            0            0            0            0            0            0 
10125000    727.36113    50645.687    370.10391   -469.50443    563.74003    94.235597    631.47573   -469.50443            0   -10.340259            0            0            0            0            0            0 
10126000    736.00713    51270.981    368.49203    -467.0215    561.28482    94.263321    644.60136    -467.0215            0   -10.214151            0            0            0            0            0            0 
10127000    604.04576    50466.743    340.36257   -488.65464    518.43821    29.783569    474.36468   -488.65464            0   -10.376924            0            0            0            0            0            0 
10128000    605.41758    51430.172    355.39631   -473.76655     541.3375    67.570958    521.66824   -473.76655            0   -10.182535            0            0            0            0            0            0 
10129000    679.13182     51618.63    349.93943   -465.92905    533.02561     67.09656    578.35023   -465.92905            0   -10.145359            0            0            0            0            0            0 
10130000    813.19859    49666.759    356.36806   -484.56428    542.81767     58.25339    647.28463   -484.56428            0   -10.544065            0            0            0            0            0            0 
10131000    833.03194    50912.383    362.76581   -471.00029    552.56268    81.562388    700.09267   -471.00029            0   -10.286094            0            0            0            0            0            0 
10132000    726.56092    50668.008    384.10222   -479.65108    585.06218    105.41109    642.29669   -479.65108            0   -10.335704            0            0            0            0            0            0 
10133000    709.30413    50888.287    357.74335   -467.77752    544.91251    77.134991    603.54751   -467.77752            0   -10.290964            0            0            0            0            0            0 
10134000    614.57357    51321.001    353.44338   -473.48928    538.36281    64.873534    524.85982   -473.48928            0   -10.204196            0            0            0            0            0            0 
10135000    551.07606    53830.676    349.63177   -455.57686    532.55699    76.980122    509.61075   -455.57686            0   -9.7284594            0            0            0            0            0            0 
10136000    707.53323    51537.132    336.14751   -459.94544    512.01785    52.072416    583.86586   -459.94544            0   -10.161403            0            0            0            0            0            0 
10137000    618.52841    50530.572    373.54669    -496.7354    568.98405    72.248659    528.06486    -496.7354            0   -10.363816            0            0            0            0            0            0 
10138000    601.56456    52279.177    378.99682   -472.26883    577.28565    105.01682    563.67262   -472.26883            0   -10.017173            0            0            0            0            0            0 
10139000    737.91552    49526.879    362.11317   -479.20622    551.56858     72.36236     605.3578   -479.20622            0   -10.573845            0            0            0            0            0            0 
10140000     721.1048    51853.583    367.00915   -449.26612    559.02611    109.75999    655.08202   -449.26612            0    -10.09939            0            0            0            0            0            0 
10141000    786.90697    51203.175    370.00039    -461.6415    563.58235    101.94085    689.56032    -461.6415            0   -10.227677            0            0            0            0            0            0 
10142000    619.51905    50320.363    346.19011   -490.96569    527.31468    36.348986    490.99597   -490.96569            0    -10.40711            0            0            0            0            0            0 
10143000    507.14057    52577.735    368.31439   -473.32449    561.01424    87.689752    476.56125   -473.32449            0   -9.9602911            0            0            0            0            0            0 
10144000    758.25726     49755.45    348.46292   -477.92208     530.7766    52.854528    603.07041   -477.92208            0    -10.52527            0            0            0            0            0            0 
10145000    828.19506    52448.165    389.91965   -446.97919    593.92325    146.94406    780.43269   -446.97919            0   -9.9848973            0            0            0            0            0            0 
10146000    693.56793    49629.349    328.42338   -487.09611     500.2525    13.156386     515.1561   -487.09611            0   -10.552013            0            0            0            0            0            0 
10147000    652.97173    50598.439    348.85949   -491.02103    531.38066    40.359626    522.20466   -491.02103            0   -10.349915            0            0            0            0            0            0 
10148000    705.36807    51196.412     346.5226   -463.42458    527.82112    64.396538    591.05761   -463.42458            0   -10.229028            0            0            0            0            0            0 
10149000    797.24713    49899.179    371.66511   -470.75439    566.11804    95.363651    675.54299   -470.75439            0   -10.494953            0            0            0            0            0            0 
10150000    546.63913    53225.442    342.13177   -460.30555    521.13303    60.827483    485.14981   -460.30555            0    -9.839083            0            0            0            0            0            0 
10151000    799.54154    49458.057    352.21717   -481.16917    536.49506    55.325887    632.03123   -481.16917            0   -10.588559            0            0            0            0            0            0 
10152000    731.59485    53130.959    346.06362   -439.72904    527.12201    87.392973    654.27695   -439.72904            0     -9.85658            0            0            0            0            0            0 
10153000     536.7389    52762.608    360.82755   -464.65751    549.61034     84.95283    497.96726   -464.65751            0   -9.9253915            0            0            0            0            0            0 
10154000    534.72061    53556.045    325.78563   -458.47994     496.2347    37.754759    455.40363   -458.47994            0   -9.7783462            0            0            0            0            0            0 
10155000    710.29329    49192.717    359.63415     -491.199    547.79256    56.593559    566.17595     -491.199            0   -10.645672            0            0            0            0            0            0 
10156000    696.95236    51588.652    344.42291   -465.47732    524.62288    59.145562    583.50991   -465.47732            0   -10.151255            0            0            0            0            0            0 
10157000    654.22864    51161.918    382.77364   -487.80261    583.03848     95.23587     583.3847   -487.80261            0   -10.235925            0            0            0            0            0            0 
10158000    846.24065     50962.42    383.83415   -461.90928    584.65385    122.74457    751.69992   -461.90928            0   -10.275994            0            0            0            0            0            0 
10159000    676.21755     49865.19    355.18149   -486.64473    541.01029    54.365556    546.13303   -486.64473            0   -10.502107            0            0            0            0            0            0 
10160000    642.10284    50943.913    355.85379   -481.33771    542.03433    60.696621    537.75637   -481.33771            0   -10.279728            0            0            0            0            0            0 
10161000    773.57967    53001.815    365.38978   -439.24884     556.5595    117.31066    715.27003   -439.24884            0   -9.8805964            0            0            0            0            0            0 
10162000    785.77728    51927.165    348.37028   -452.13335    530.63551    78.502155    673.57478   -452.13335            0   -10.085079            0            0            0            0            0            0 
10163000    773.91145     49653.61    358.09156     -479.193    545.44289    66.249889    626.67552     -479.193            0   -10.546857            0            0            0            0            0            0 
10164000    720.58705    50363.096    363.88343   -480.52291    554.26503    73.742119    603.00905   -480.52291            0   -10.398279            0            0            0            0            0            0 
10165000    640.15128    51422.804    344.24407   -469.28416    524.35048    55.066324    535.14704   -469.28416            0   -10.183994            0            0            0            0            0            0 
10166000    642.60607    49521.483    355.87283   -500.80036    542.06334    41.262984    505.36597   -500.80036            0   -10.574997            0            0            0            0            0            0 
10167000    688.92941      50679.6     337.0723   -473.49988    513.42649    39.926609    549.12121   -473.49988            0    -10.33334            0            0            0            0            0            0 
10168000    663.75041    51104.014    353.67859    -470.0268    538.72108    68.694281    563.38721    -470.0268            0   -10.247523            0            0            0            0            0            0 
10169000    605.83155    52899.353    366.87959   -453.97633    558.82877    104.85244    572.24107   -453.97633            0   -9.8997343            0            0            0            0            0            0 
10170000    745.09796    51296.113    358.29361   -460.60359    545.75065    85.147066    642.55574   -460.60359            0   -10.209147            0            0            0            0            0            0 
10171000    763.68536    50919.398    362.34831   -461.93392    551.92675    89.992826    657.11107   -461.93392            0   -10.284677            0            0            0            0            0            0 
10172000    518.92269    52340.886    358.91117   -476.04978    546.69132     70.64154    466.75502   -476.04978            0   -10.005363            0            0            0            0            0            0 
10173000    645.74209     49430.31    343.59059   -499.18731     523.3551    24.167796    489.67705   -499.18731            0   -10.594502            0            0            0            0            0            0 
10174000    711.06177    51575.336     363.0767   -459.90802    553.03623     93.12821    627.96995   -459.90802            0   -10.153876            0            0            0            0            0            0 
10175000    809.76957      49568.4     357.9008   -485.18251    545.15233    59.969826    645.35571   -485.18251            0   -10.564988            0            0            0            0            0            0 
10176000    817.73376    50141.264    350.95792    -465.4629    534.57697    69.114074    667.08916    -465.4629            0   -10.444283            0            0            0            0            0            0 
10177000    683.97951    51427.024    354.71883   -466.75604    540.30558    73.549537    586.54128   -466.75604            0   -10.183159            0            0            0            0            0            0 
10178000    643.13731     52538.44    350.53602   -459.78691    533.93434    74.147431    566.93162   -459.78691            0   -9.9677407            0            0            0            0            0            0 
10179000    727.10712    50745.403    356.97433   -470.48116    543.74113    73.259972    611.36989   -470.48116            0   -10.319941            0            0            0            0            0            0 
10180000    633.24733    50606.593    369.29679   -483.54852    562.51063    78.962111     546.3273   -483.54852            0   -10.348247            0            0            0            0            0            0 
10181000     634.1241    49956.611    362.74664   -491.88405    552.53348    60.649435    522.65065   -491.88405            0   -10.482888            0            0            0            0            0            0 
10182000    508.35561     51038.32    366.87665   -494.79619    558.82428     64.02809    442.41829   -494.79619            0   -10.260713            0            0            0            0            0            0 
10183000    704.17108    51409.549    343.34796   -462.50979    522.98553    60.475745    588.43191   -462.50979            0    -10.18662            0            0            0            0            0            0 
10184000    766.56875    51498.988    361.83896   -461.46906    551.15091    89.681848    665.42091   -461.46906            0   -10.168929            0            0            0            0            0            0 
10185000    866.37326     51444.51    355.86594    -441.1445    542.05285    100.90835    750.91824    -441.1445            0   -10.179697            0            0            0            0            0            0 
10186000    783.72469    49317.042    355.17184   -488.44876     540.9956    52.546844     616.2318   -488.44876            0   -10.618835            0            0            0            0            0            0 
10187000     570.4623    52687.565    355.38484   -466.23457    541.32004    75.085464    513.42533   -466.23457            0   -9.9395282            0            0            0            0            0            0 
10188000    679.98122    51141.849    346.11399   -471.49809    527.19872    55.700637    562.86559   -471.49809            0   -10.239942            0            0            0            0            0            0 
10189000    604.91455    49888.422    359.50071   -503.49404    547.58931    44.095269    484.21384   -503.49404            0   -10.497216            0            0            0            0            0            0 
10190000    665.86622    52792.375    338.75331   -451.52714    515.98698    64.459839    577.12532   -451.52714            0   -9.9197951            0            0            0            0            0            0 
10191000    667.26214    51398.061    365.86897   -478.91021     557.2894    78.379187    578.55088   -478.91021            0   -10.188897            0            0            0            0            0            0 
10192000    702.63827    49664.623    369.56409   -493.18149    562.91779    69.736299    578.66253   -493.18149            0   -10.544519            0            0            0            0            0            0 
10193000    658.99586     51048.41     374.3991   -475.53016    570.28244     94.75228    585.36725   -475.53016            0   -10.258685            0            0            0            0            0            0 
10194000    756.33744    49730.514    348.79691    -488.3414    531.28534    42.943943     591.4917    -488.3414            0   -10.530548            0            0            0            0            0            0 
10195000    636.07372    51714.971    341.22886   -470.50348    519.75773    49.254252    528.98729   -470.50348            0   -10.126459            0            0            0            0            0            0 
10196000    816.89271    51333.879    351.14235   -454.24096     534.8579    80.616943    692.18528   -454.24096            0   -10.201636            0            0            0            0            0            0 
10197000     688.8274    51979.844    342.40611   -460.77226    521.55091    60.778648     582.9599   -460.77226            0   -10.074858            0            0            0            0            0            0 
10198000    680.16315    50729.169     344.9332   -476.69781    525.40017    48.702351    551.90942   -476.69781            0   -10.323243            0            0            0            0            0            0 
10199000    686.45077    51534.635    379.27588   -470.01235    577.71072    107.69838    623.62091   -470.01235            0   -10.161895            0            0            0            0            0            0 
10200000    650.81233    50527.733    356.39203   -482.58162    542.85419    60.272567    539.85302   -482.58162            0   -10.364398            0            0            0            0            0            0 
10201000     660.1123    50161.855    346.07564   -488.62689    527.14032     38.51343    521.42466   -488.62689            0   -10.439996            0            0            0            0            0            0 
10202000    756.86401    51768.969    375.51777   -460.38853    571.98639    111.59786    683.02815   -460.38853            0   -10.115897            0            0            0            0            0            0 
10203000    565.25426    52177.285    366.75827   -469.59938    558.64398      89.0446    519.17606   -469.59938            0   -10.036734            0            0            0            0            0            0 
10204000    535.60211    50091.701    349.56473   -497.59369    532.45487    34.861184    426.13785   -497.59369            0   -10.454617            0            0            0            0            0            0 
10205000    742.57585    50175.901    381.84018   -488.22708    581.61665    93.389568    636.77988   -488.22708            0   -10.437073            0            0            0            0            0            0 
10206000    840.07983    51495.614    377.80989   -454.67046    575.47773    120.80726    751.71621   -454.67046            0   -10.169595            0            0            0            0            0            0 
10207000    825.21083    48666.781    367.93899    -488.4424    560.44244    72.000043    657.69762    -488.4424            0   -10.760719            0            0            0            0            0            0 
10208000    661.84588    53570.921    344.73497   -449.08705    525.09822    76.011168    593.09609   -449.08705            0   -9.7756308            0            0            0            0            0            0 
10209000    627.69636    50245.751    350.05802   -480.52973    533.20625    52.676523    512.64158   -480.52973            0   -10.422564            0            0            0            0            0            0 
10210000    676.29205    50820.758    345.50614   -478.12047    526.27286    48.152392    549.39884   -478.12047            0   -10.304639            0            0            0            0            0            0 
10211000    746.29902    51028.302    359.04428   -467.38704    546.89407    79.507022    634.89935   -467.38704            0   -10.262727            0            0            0            0            0            0 
10212000    773.93357    50784.022    369.46915   -471.48895    562.77316     91.28421    664.48485   -471.48895            0   -10.312093            0            0            0            0            0            0 
10213000    733.08347    52613.185    356.50101   -458.42884    543.02018    84.591338    647.09313   -458.42884            0     -9.95358            0            0            0            0            0            0 
10214000    789.04884    50582.125    379.89001   -465.98332    578.64615    112.66283      694.735   -465.98332            0   -10.353253            0            0            0            0            0            0 
10215000    522.58711    52277.777    346.25212   -479.44489    527.40913    47.964237    446.39393   -479.44489            0   -10.017441            0            0            0            0            0            0 
10216000    758.65213    48086.296    360.36449    -504.7085      548.905    44.196504    576.23113    -504.7085            0   -10.890619            0            0            0            0            0            0 
10217000    851.08522    50699.434    358.95337    -464.2441    546.75559    82.511498    711.80326    -464.2441            0   -10.329298            0            0            0            0            0            0 
10218000    635.70109    51389.491     363.0164    -474.7236    552.94438    78.220786    554.65524    -474.7236            0   -10.190596            0            0            0            0            0            0 
10219000    604.07924    52060.372    369.77158   -468.44556    563.23383    94.788273     553.4337   -468.44556            0   -10.059274            0            0            0            0            0            0 
10220000    616.52279    50540.517    351.87668   -481.87354    535.97643    54.102894     508.5305   -481.87354            0   -10.361777            0            0            0            0            0            0 
10221000    624.02798    51546.198     372.0495   -475.76634    566.70354    90.937206    560.04925   -475.76634            0   -10.159615            0            0            0            0            0            0 
10222000    646.95799    49726.808    333.80573   -487.78789    508.45086    20.662969    489.84627   -487.78789            0   -10.531332            0            0            0            0            0            0 
10223000    494.96822    52375.078    372.59027   -478.42068    567.52723    89.106554    467.18149   -478.42068            0   -9.9988308            0            0            0            0            0            0 
10224000     835.3857    49519.869    364.95872   -472.48943     555.9029    83.413474     686.7261   -472.48943            0   -10.575342            0            0            0            0            0            0 
10225000    679.95011    51462.505    338.23882   -465.07265    515.20332    50.130672    560.45217   -465.07265            0   -10.176138            0            0            0            0            0            0 
10226000    692.41315    50951.281    355.76158   -475.49152    541.89388    66.402363     580.9153   -475.49152            0   -10.278241            0            0            0            0            0            0 
10227000    615.27585    52132.939    376.63802   -465.86886    573.69275    107.82389    575.62147   -465.86886            0   -10.045272            0            0            0            0            0            0 
10228000    687.43969    51605.995    371.19891   -467.74793    565.40792    97.659997     615.0412   -467.74793            0   -10.147843            0            0            0            0            0            0 
10229000    817.69711    51832.904    375.25496   -443.00303    571.58608    128.58305    746.70462   -443.00303            0   -10.103419            0            0            0            0            0            0 
10230000    764.66681    49224.772    353.56009   -486.90583    538.54058    51.634751    600.58356   -486.90583            0    -10.63874            0            0            0            0            0            0 
10231000    719.66134    51426.375    359.49699    -467.8371    547.58363     79.74653    619.49321    -467.8371            0   -10.183287            0            0            0            0            0            0 
10232000    588.27506    50927.499    359.59969   -478.97856    547.74006    68.761501    505.68829   -478.97856            0   -10.283041            0            0            0            0            0            0 
10233000    711.55344    51175.088    367.06185   -475.18582    559.10638    83.920565    614.97864   -475.18582            0    -10.23329            0            0            0            0            0            0 
10234000    687.65117    51632.635    386.41811   -471.98624    588.58972    116.60347    634.41101   -471.98624            0   -10.142607            0            0            0            0            0            0 
10235000    703.52353    50149.641    357.03025   -485.47769    543.82631    58.348624    572.89242   -485.47769            0   -10.442538            0            0            0            0            0            0 
10236000    577.13513    52668.321    353.56255   -463.82123    538.54432     74.72309    518.02834   -463.82123            0     -9.94316            0            0            0            0            0            0 
10237000    713.74754    50410.918    365.60558   -478.89625     556.8882    77.991942    602.73308   -478.89625            0   -10.388415            0            0            0            0            0            0 
10238000    653.07641    50757.405    378.64116   -479.43565    576.74392    97.308266    580.74461   -479.43565            0     -10.3175            0            0            0            0            0            0 
10239000    734.08171    51270.747    353.69514    -471.6184    538.74629     67.12789    616.02373    -471.6184            0   -10.214198            0            0            0            0            0            0 
10240000    674.42139    50774.433    353.58201   -473.05349    538.57397    65.520477    564.92481   -473.05349            0    -10.31404            0            0            0            0            0            0 
10241000    635.60273    49130.365    361.51257   -503.08351    550.65375    47.570243    502.98976   -503.08351            0   -10.659183            0            0            0            0            0            0 
10242000    734.70914    51582.145    345.63043   -461.69025    526.46218    64.771927    617.47354   -461.69025            0   -10.152535            0            0            0            0            0            0 
10243000    586.44893    53262.433    364.97115   -466.89318    555.92184    89.028656    544.56926   -466.89318            0   -9.8322497            0            0            0            0            0            0 
10244000    827.94926    47932.594    385.80728   -497.63606    587.65931    90.023246    668.79929   -497.63606            0   -10.925541            0            0            0            0            0            0 
10245000    734.46347    51098.108    369.13558   -477.09771    562.26508     85.16737    632.49946   -477.09771            0   -10.248707            0            0            0            0            0            0 
10246000    912.67304    51065.335    392.56366   -459.00192    597.95059    138.94867    818.64871   -459.00192            0   -10.255285            0            0            0            0            0            0 
10247000    547.89592    51931.208    353.25911   -481.83662    538.08213    56.245506    471.20183   -481.83662            0   -10.084294            0            0            0            0            0            0 
10248000    632.51229     51174.56    338.33582   -475.71748    515.35107    39.633594    511.69552   -475.71748            0   -10.233396            0            0            0            0            0            0 
10249000    723.74257    50075.399    351.13594   -480.54892    534.84814    54.299221    582.84722   -480.54892            0    -10.45802            0            0            0            0            0            0 
10250000    720.73034    51685.153     383.2894   -459.38291    583.82409    124.44118    667.70965   -459.38291            0   -10.132301            0            0            0            0            0            0 
10251000     603.4649    51960.146    347.79929   -464.95597    529.76577    64.809807    522.10672   -464.95597            0   -10.078677            0            0            0            0            0            0 
10252000    666.19763    50592.872    362.78456   -481.16662    552.59124     71.42462    562.97531   -481.16662            0   -10.351054            0            0            0            0            0            0 
10253000    789.39313    51035.164    380.82736   -465.96683    580.07392     114.1071    701.64886   -465.96683            0   -10.261347            0            0            0            0            0            0 
10254000    661.24353    51771.291    348.91991    -465.5688     531.4727    65.903901    565.16338    -465.5688            0   -10.115443            0            0            0            0            0            0 
10255000    707.02917    51753.417    355.81056   -470.16149    541.96848    71.806999    605.45177   -470.16149            0   -10.118937            0            0            0            0            0            0 
10256000    635.56055    53170.129    347.82388    -460.5608    529.80322    69.242424    562.07628    -460.5608            0   -9.8493188            0            0            0            0            0            0 
10257000    737.22648    51052.051    354.40092   -466.94822    539.82134     72.87312    621.76905   -466.94822            0   -10.257953            0            0            0            0            0            0 
10258000    733.59089    49681.481    354.07118   -477.21358    539.31907    62.105485    593.63129   -477.21358            0   -10.540941            0            0            0            0            0            0 
10259000    789.42311    52538.224     363.5778   -449.61127    553.79949    104.18822    709.05693   -449.61127            0   -9.9677817            0            0            0            0            0            0 
10260000    743.85953     50524.07    363.22083   -467.23323    553.25576    86.022534    634.12929   -467.23323            0    -10.36515            0            0            0            0            0            0 
10261000    551.15047    53688.356    365.74283   -460.36036    557.09727    96.736902    528.28199   -460.36036            0   -9.7542481            0            0            0            0            0            0 
10262000    655.46269    49782.632    370.01416    -497.2932    563.60332    66.310123     542.1948    -497.2932            0   -10.519523            0            0            0            0            0            0 
10263000    708.91449    51002.068    362.74872   -466.74862    552.53666     85.78804    613.08775   -466.74862            0   -10.268006            0            0            0            0            0            0 
10264000    580.59628    52538.939    365.88613   -463.54355    557.31554    93.771992    538.64027   -463.54355            0    -9.967646            0            0            0            0            0            0 
10265000    540.16627    51290.441    345.22245   -487.07085    525.84074    38.769891    442.82424   -487.07085            0   -10.210276            0            0            0            0            0            0 
10266000    761.89186    50019.864     360.2135   -483.50052    548.67502    65.174504    620.96579   -483.50052            0   -10.469631            0            0            0            0            0            0 
10267000    709.49548    52595.492    375.28145   -457.74431    571.62643    113.88212    658.10154   -457.74431            0   -9.9569284            0            0            0            0            0            0 
10268000    734.46443    49740.277    368.85677   -482.83253     561.8404    79.007863    611.79638   -482.83253            0   -10.528481            0            0            0            0            0            0 
10269000    645.17214    51731.023     370.8601    -462.3719    564.89185    102.51995    589.26614    -462.3719            0   -10.123317            0            0            0            0            0            0 
10270000     915.1498     49551.96    389.33576   -474.58826    593.03386    118.44561    779.79189   -474.58826            0   -10.568493            0            0            0            0            0            0 
10271000    669.80249    51446.514    355.22611    -466.1659    541.07825    74.912355    577.46157    -466.1659            0   -10.179301            0            0            0            0            0            0 
10272000    622.94833    51946.922    341.26987   -462.93279    519.82019    56.887398    528.82843   -462.93279            0   -10.081243            0            0            0            0            0            0 
10273000    779.64887    50086.654    352.56255   -476.38888    537.02114    60.632258    630.13649   -476.38888            0    -10.45567            0            0            0            0            0            0 
10274000    648.60282    50341.202    371.86882   -493.32215    566.42833    73.106184    549.29402   -493.32215            0   -10.402802            0            0            0            0            0            0 
10275000    744.17493    51106.931    384.11033   -470.07729    585.07453    114.99723    669.66218   -470.07729            0   -10.246938            0            0            0            0            0            0 
10276000    645.56058    50611.105    356.19577   -482.09548    542.55523    60.459752    536.95515   -482.09548            0   -10.347325            0            0            0            0            0            0 
10277000     595.6966    51869.295    345.32597   -467.12533    525.99842    58.873087    509.49402   -467.12533            0    -10.09633            0            0            0            0            0            0 
10278000    616.90951    52286.708    363.17132   -463.66256    553.18036    89.517803    559.94091   -463.66256            0    -10.01573            0            0            0            0            0            0 
10279000    864.06845    50185.025    368.53768   -465.22723    561.35435    96.127118    728.53632   -465.22723            0   -10.435176            0            0            0            0            0            0 
10280000    553.56501     51256.73    369.09813   -484.86902    562.20804    77.339017    491.14371   -484.86902            0   -10.216991            0            0            0            0            0            0 
10281000    695.48514    50701.164    361.75833   -472.57708    551.02809    78.451013    592.70975   -472.57708            0   -10.328945            0            0            0            0            0            0 
10282000    658.67681    51936.217    345.84644   -461.22993     526.7912    65.561271     564.4671   -461.22993            0   -10.083321            0            0            0            0            0            0 
10283000    681.20573    52392.726    357.95227   -455.97804    545.23073    89.252689    609.75801   -455.97804            0   -9.9954629            0            0            0            0            0            0 
10284000    612.65053     51211.59    354.48051   -477.96007    539.94257    61.982495    519.55189   -477.96007            0   -10.225997            0            0            0            0            0            0 
10285000    651.76317    51874.967    369.78449   -468.38699     563.2535    94.866512    587.95349   -468.38699            0   -10.095227            0            0            0            0            0            0 
10286000    635.41286    51895.317    367.08854    -472.9868    559.14704    86.160238    567.06609    -472.9868            0   -10.091268            0            0            0            0            0            0 
10287000    710.09888    49976.469    348.93918   -484.86195    531.50204     46.64009    564.19959   -484.86195            0   -10.478722            0            0            0            0            0            0 
10288000    705.25797     53040.08    379.67162   -448.46645    578.31351    129.84705    675.38889   -448.46645            0   -9.8734683            0            0            0            0            0            0 
10289000    811.79868    49365.465    341.39026   -483.67347    520.00358    36.330104    620.78024   -483.67347            0   -10.608419            0            0            0            0            0            0 
10290000    639.22162     50700.14    363.19441   -491.86264    553.21553    61.352889    533.99945   -491.86264            0   -10.329154            0            0            0            0            0            0 
10291000    585.06831    50598.084    358.01934   -494.34425    545.33288    50.988632    482.72291   -494.34425            0   -10.349988            0            0            0            0            0            0 
10292000    633.94591    49406.046    354.12278   -499.46993    539.39767    39.927748    496.70892   -499.46993            0   -10.599706            0            0            0            0            0            0 
10293000    645.00698    51509.068    369.14102   -479.40901    562.27337    82.864354    567.39807   -479.40901            0   -10.166939            0            0            0            0            0            0 
10294000    718.99331    52106.294    363.12315   -459.98554    553.10698    93.121437    639.49657   -459.98554            0   -10.050409            0            0            0            0            0            0 
10295000    644.83443    51259.845    358.53321   -473.42836    546.11561    72.687243    554.74757   -473.42836            0    -10.21637            0            0            0            0            0            0 
10296000    740.64806     49145.58    384.56972   -501.21918    585.77427     84.55509     615.4056   -501.21918            0   -10.655883            0            0            0            0            0            0 
10297000    681.93245    51096.508    380.03641   -480.68505    578.86915    98.184106    606.35346   -480.68505            0   -10.249028            0            0            0            0            0            0 
10298000    581.96821    50749.319    338.11695   -484.96442    515.01769    30.053267    460.78351   -484.96442            0   -10.319144            0            0            0            0            0            0 
10299000    725.95244    51553.153    352.01472   -458.01172    536.18669    78.174978    623.98222   -458.01172            0   -10.158245            0            0            0            0            0            0 
10300000    708.70852    51354.339    385.97358   -470.08132    587.91262     117.8313     648.6188   -470.08132            0   -10.197572            0            0            0            0            0            0 
10301000    621.07583     52588.23    386.86697   -471.03501    589.27342    118.23841    594.56965   -471.03501            0   -9.9583032            0            0            0            0            0            0 
10302000     619.6968    51730.317    368.96029   -467.54621    561.99808    94.451867    561.97197   -467.54621            0   -10.123455            0            0            0            0            0            0 
10303000    699.95326    52614.364      354.239   -452.84335     539.5747     86.73135    623.82406   -452.84335            0    -9.953357            0            0            0            0            0            0 
10304000    775.77912    51342.152    346.47826   -451.25596    527.75359    76.497623    657.37978   -451.25596            0   -10.199992            0            0            0            0            0            0 
10305000    781.22175    51040.271    359.20001   -456.28763    547.13128    90.843648    672.36168   -456.28763            0   -10.260321            0            0            0            0            0            0 
10306000    863.05349    50715.171    339.76792   -456.54993    517.53244    60.982511    699.32168   -456.54993            0   -10.326092            0            0            0            0            0            0 
10307000    687.66777    50018.045    344.97846   -485.30904     525.4691    40.160066     541.7875   -485.30904            0   -10.470012            0            0            0            0            0            0 
10308000     725.6058    50635.563    348.40587   -470.00238     530.6897    60.687318    596.52381   -470.00238            0   -10.342327            0            0            0            0            0            0 
10309000    625.97012    54145.638    372.04034   -447.22006    566.68959    119.46953    613.77221   -447.22006            0   -9.6718696            0            0            0            0            0            0 
10310000    673.01769    51399.192     388.7214    -478.1927    592.09808    113.90538    618.40246    -478.1927            0   -10.188673            0            0            0            0            0            0 
10311000    861.98743    49250.149    362.39165   -480.57387    551.99276    71.418889    690.55249   -480.57387            0   -10.633258            0            0            0            0            0            0 
10312000    579.16041    52234.293    353.91987   -470.24492    539.08859    68.843675    510.03857   -470.24492            0    -10.02578            0            0            0            0            0            0 
10313000    727.94495    49447.568    350.69493   -485.44528    534.17639    48.731102    573.68282   -485.44528            0   -10.590805            0            0            0            0            0            0 
10314000    614.74065    49244.343    371.07002   -499.80683    565.21161    65.404776    506.89813   -499.80683            0   -10.634512            0            0            0            0            0            0 
10315000    692.70562    51091.853    350.92548   -477.94354    534.52756    56.584023     572.7344   -477.94354            0   -10.249962            0            0            0            0            0            0 
10316000    725.90049    52587.033    362.41597   -454.86335    552.02981    97.166459    653.87982   -454.86335            0     -9.95853            0            0            0            0            0            0 
10317000    769.23249    50260.951    352.63399   -472.70326    537.12995    64.426689     628.2775   -472.70326            0   -10.419412            0            0            0            0            0            0 
10318000    683.54421    51012.099    348.58622   -473.43986    530.96442    57.524561    566.05353   -473.43986            0   -10.265987            0            0            0            0            0            0 
10319000    706.55727    50500.147    368.10738   -480.13014    560.69892    80.568787    600.94315   -480.13014            0    -10.37006            0            0            0            0            0            0 
10320000    559.51044    50692.739    369.07698   -484.48452    562.17582    77.691297    491.33826   -484.48452            0   -10.330662            0            0            0            0            0            0 
10321000    642.08448    52397.468    361.84901   -465.56826    551.16621    85.597953    576.25537   -465.56826            0   -9.9945582            0            0            0            0            0            0 
10322000    879.60715    48761.416    355.23707   -483.35334    541.09494    57.741605    683.26125   -483.35334            0   -10.739835            0            0            0            0            0            0 
10323000    683.66667    53335.051    379.00138   -446.12725     577.2926    131.16535    662.94659   -446.12725            0   -9.8188627            0            0            0            0            0            0 
10324000    732.67965    49918.895     354.3963   -478.41193    539.81429    61.402357    594.80477   -478.41193            0   -10.490808            0            0            0            0            0            0 
10325000    637.77272    52527.383    387.62373    -467.7209    590.42612    122.70522    611.27611    -467.7209            0    -9.969839            0            0            0            0            0            0 
10326000    712.52577    50489.743     355.4475   -472.11713    541.41548    69.298354    593.96037   -472.11713            0   -10.372197            0            0            0            0            0            0 
10327000    555.66651    53667.818    379.10148    -460.3704    577.44508    117.07467    551.98934    -460.3704            0    -9.757981            0            0            0            0            0            0 
10328000    809.28136    50300.649    362.44532   -472.07905    552.07451    79.995461    673.67081   -472.07905            0   -10.411189            0            0            0            0            0            0 
10329000    559.06407    53127.989    362.34048   -460.13447    551.91482    91.780356    524.95283   -460.13447            0   -9.8571309            0            0            0            0            0            0 
10330000    668.62123      49936.4    351.42651   -487.59402    535.29073    47.696713    534.63428   -487.59402            0   -10.487131            0            0            0            0            0            0 
10331000    627.02719    52905.655     350.9336   -454.92487    534.53993    79.615059    563.41338   -454.92487            0   -9.8985551            0            0            0            0            0            0 
10332000    651.40311     51703.32    354.94194   -460.28098    540.64541     80.36443    571.54835   -460.28098            0   -10.128741            0            0            0            0            0            0 
10333000    580.52993    52609.115     343.4877   -463.98959    523.19838    59.208793    504.62037   -463.98959            0     -9.95435            0            0            0            0            0            0 
10334000     639.1827    51137.288     353.2892   -481.26916    538.12796    56.858798     533.5516   -481.26916            0   -10.240855            0            0            0            0            0            0 
10335000    457.40693    52766.173    344.54878   -473.25627    524.81461    51.558339     403.5515   -473.25627            0   -9.9247211            0            0            0            0            0            0 
10336000    678.13247    51469.453    347.91855   -465.38441    529.94743    64.563024    573.58905   -465.38441            0   -10.174764            0            0            0            0            0            0 
10337000    583.27766    52369.718    368.34118   -465.64905    561.05505    95.405998    540.88934   -465.64905            0   -9.9998543            0            0            0            0            0            0 
10338000    883.02857    49102.777    390.83584   -480.08952    595.31878    115.22926    747.57806   -480.08952            0   -10.665172            0            0            0            0            0            0 
10339000    543.79787    52107.872    362.38064   -475.92718      551.976    76.048818    489.30249   -475.92718            0   -10.050104            0            0            0            0            0            0 
10340000    585.97491    51418.249    342.74965   -472.79119     522.0742    49.283003    488.69529   -472.79119            0   -10.184896            0            0            0            0            0            0 
10341000    695.09159    49680.625    369.50883   -485.48372     562.8336    77.349884    580.97221   -485.48372            0   -10.541122            0            0            0            0            0            0 
10342000    690.63969    51507.659    353.23246   -466.02142    538.04154    72.020122    590.81924   -466.02142            0   -10.167217            0            0            0            0            0            0 
10343000    772.57649    52579.587    360.79506   -439.51239    549.56084    110.04845    702.47505   -439.51239            0   -9.9599403            0            0            0            0            0            0 
10344000    628.39695     52076.96    365.39938   -466.78994    556.57413    89.784184    567.04479   -466.78994            0    -10.05607            0            0            0            0            0            0 
10345000    684.45806    50967.587    363.29827   -473.56613    553.37371    79.807587    588.57209   -473.56613            0   -10.274953            0            0            0            0            0            0 
10346000    805.13961    49528.258    353.74791   -475.67619    538.82667    63.150481    644.71798   -475.67619            0   -10.573551            0            0            0            0            0            0 
10347000    662.44753    52966.967    377.18079   -453.03669    574.51949     121.4828     633.2029   -453.03669            0   -9.8870971            0            0            0            0            0            0 
10348000    806.06423     50031.26    349.12615   -470.81031    531.78683    60.976518      649.125   -470.81031            0   -10.467247            0            0            0            0            0            0 
10349000    744.00646     52048.83    373.58293   -449.72961    569.03926    119.30965    684.06917   -449.72961            0   -10.061505            0            0            0            0            0            0 
10350000    708.80628    50752.002    348.84168   -472.07065    531.35353    59.282883    583.91712   -472.07065            0   -10.318599            0            0            0            0            0            0 
10351000    518.43485    53485.438    358.03549   -461.98429    545.35748    83.373194    487.76806   -461.98429            0   -9.7912547            0            0            0            0            0            0 
10352000    705.53095    51056.417    356.07348   -473.02354    542.36897    69.345428    594.68763   -473.02354            0   -10.257076            0            0            0            0            0            0 
10353000     660.7119     49993.77    357.96994   -495.29862    545.25764    49.959021    531.68926   -495.29862            0   -10.475096            0            0            0            0            0            0 
[...]
14939000    536.41955     52282.02     362.8053   -473.09126    552.62283    79.531562    488.54055   -473.09126            0   -10.016628            0            0            0            0            0            0 
14940000    717.80694    49704.974    351.28083   -485.59518    535.06883    49.473652    569.80908   -485.59518            0   -10.535959            0            0            0            0            0            0 
14941000    816.82652    50692.531    376.89871   -465.03132    574.08983    109.05851    712.93719   -465.03132            0   -10.330704            0            0            0            0            0            0 
14942000    690.24377    51254.575    373.49112   -468.25629     568.8994    100.64312    616.59717   -468.25629            0    -10.21742            0            0            0            0            0            0 
14943000    631.58181    51945.207    363.94373   -467.24372    554.35688    87.113159    565.57905   -467.24372            0   -10.081576            0            0            0            0            0            0 
14944000    813.48975    49599.817    351.79681   -473.45708    535.85476    62.397681    650.84562   -473.45708            0   -10.558296            0            0            0            0            0            0 
14945000    492.10271    52468.731     353.1049   -478.37421    537.84725    59.473034    436.03132   -478.37421            0   -9.9809836            0            0            0            0            0            0 
14946000    717.36498      50672.9    329.31392   -474.14286    501.60896      27.4661    557.60762   -474.14286            0   -10.334706            0            0            0            0            0            0 
14947000     769.4878    50512.455    359.00034   -469.90251    546.82715    76.924637    643.78502   -469.90251            0   -10.367533            0            0            0            0            0            0 
14948000    524.31766     52042.04    362.65983   -475.94687    552.40125    76.454384    474.40088   -475.94687            0   -10.062817            0            0            0            0            0            0 
14949000    648.97427    51006.404    359.72418   -479.99101    547.92969    67.938685    550.69512   -479.99101            0   -10.267133            0            0            0            0            0            0 
14950000    794.42767    49654.889    348.54905   -479.42284     530.9078    51.484961    626.78217   -479.42284            0   -10.546586            0            0            0            0            0            0 
14951000    773.16101     52436.81    347.60465   -443.87369     529.4693    85.595608    676.86051   -443.87369            0   -9.9870595            0            0            0            0            0            0 
14952000    975.78538    48337.864     374.2305   -472.09384    570.02563    97.931783    785.81966   -472.09384            0    -10.83394            0            0            0            0            0            0 
14953000    564.60574     53842.67    344.96924    -451.2453    525.45505    74.209756    517.56083    -451.2453            0   -9.7262923            0            0            0            0            0            0 
14954000    835.07402    49672.692    384.35575   -474.96278    585.44835    110.48557    715.43429   -474.96278            0   -10.542806            0            0            0            0            0            0 
14955000    517.00429    51708.856     353.8471   -488.44264    538.97776    50.535122    440.41872   -488.44264            0   -10.127657            0            0            0            0            0            0 
14956000    798.56137    50520.719    358.15078   -464.77008     545.5331    80.763023    669.13734   -464.77008            0   -10.365837            0            0            0            0            0            0 
14957000    666.35457    49501.646     360.7043   -493.21325    549.42261    56.209361     537.2712   -493.21325            0   -10.579235            0            0            0            0            0            0 
14958000    668.25282    53386.824    368.30912   -444.81742    561.00622     116.1888    636.48515   -444.81742            0   -9.8093406            0            0            0            0            0            0 
14959000    754.71103    52303.736    381.62136   -453.97691    581.28334    127.30644    702.99724   -453.97691            0   -10.012469            0            0            0            0            0            0 
14960000    776.37392    48677.725    367.96152    -501.1572    560.47676     59.31956    610.47881    -501.1572            0     -10.7583            0            0            0            0            0            0 
14961000    502.19045    53284.416    352.28177   -463.89917    536.59345    72.694281    462.94575   -463.89917            0   -9.8281934            0            0            0            0            0            0 
14962000    875.74082    49778.755    359.48284   -468.08134    547.56208    79.480746    715.24413   -468.08134            0   -10.520342            0            0            0            0            0            0 
14963000     816.2556    49694.886    363.56227   -475.50196    553.77584    78.273877    669.85426   -475.50196            0   -10.538097            0            0            0            0            0            0 
14964000    727.41307    51242.797    355.89611   -462.67125    542.09879     79.42754    623.04052   -462.67125            0   -10.219769            0            0            0            0            0            0 
14965000    779.92182    49021.598    348.30039   -487.23814    530.52903     43.29089    600.88018   -487.23814            0   -10.682833            0            0            0            0            0            0 
14966000    774.32268    52364.577    363.79607   -450.31632    554.13196    103.81564    695.15321   -450.31632            0   -10.000836            0            0            0            0            0            0 
14967000     750.1402    53617.948    356.75775   -431.80469    543.41125    111.60656    698.18827   -431.80469            0   -9.7670569            0            0            0            0            0            0 
14968000    844.42535    48381.577    360.44775   -489.80122    549.03182    59.230608    655.05348   -489.80122            0   -10.824152            0            0            0            0            0            0 
14969000    611.71078    52472.206    356.16999   -467.45668    542.51596     75.05928    543.17297   -467.45668            0   -9.9803227            0            0            0            0            0            0 
14970000    808.56926    51245.639    352.47342    -462.2039    536.88537    74.681471     678.9779    -462.2039            0   -10.219202            0            0            0            0            0            0 
14971000    718.83069    51583.955     363.1824   -459.83334    553.19724    93.363896    634.13956   -459.83334            0   -10.152179            0            0            0            0            0            0 
14972000    768.95984    50110.318    365.93638   -470.03387    557.39207    87.358204    649.31989   -470.03387            0   -10.450733            0            0            0            0            0            0 
14973000    611.20152    51828.969    377.20834   -472.51459    574.56146    102.04687    564.03721   -472.51459            0   -10.104186            0            0            0            0            0            0 
14974000     750.2179    53141.516    360.39473   -437.70142    548.95107    111.24965    692.67941   -437.70142            0   -9.8546218            0            0            0            0            0            0 
14975000    761.29074    52473.992    352.47195   -442.18214    536.88313    94.700988    677.30107   -442.18214            0   -9.9799829            0            0            0            0            0            0 
14976000    913.09826    50172.031    390.01966   -463.30899    594.07558    130.76659    798.88754   -463.30899            0   -10.437878            0            0            0            0            0            0 
14977000    634.99681    53436.901    350.64874   -448.49753    534.10603    85.608504    580.47574   -448.49753            0   -9.8001481            0            0            0            0            0            0 
14978000      676.383     52186.61    371.45824   -471.30886    565.80295    94.494089    609.28119   -471.30886            0   -10.034941            0            0            0            0            0            0 
14979000    619.88965     51941.63    353.59332   -466.79861    538.59121    71.792601    541.36855   -466.79861            0    -10.08227            0            0            0            0            0            0 
14980000    676.17955    50890.671    339.53067   -470.83695    517.17106    46.334111    548.18662   -470.83695            0   -10.290482            0            0            0            0            0            0 
14981000    691.11492    51908.762    365.71824   -458.41012     557.0598    98.649687     621.8486   -458.41012            0   -10.088654            0            0            0            0            0            0 
14982000    623.48228    52791.145    353.01492   -455.88883    537.71019    81.821356    561.84329   -455.88883            0   -9.9200263            0            0            0            0            0            0 
14983000    561.12668    51989.383    370.47591   -477.56789    564.30666     86.73877    512.19166   -477.56789            0   -10.073009            0            0            0            0            0            0 
14984000    868.91938    48563.029    348.26917     -475.803    530.48149    54.678493    670.08366     -475.803            0   -10.783708            0            0            0            0            0            0 
14985000    630.76158    51880.896    372.53943   -463.40689    567.44981    104.04291    581.29583   -463.40689            0   -10.094073            0            0            0            0            0            0 
14986000    681.11007    52416.491    363.19308   -452.85424     553.2135    100.35925    621.02755   -452.85424            0    -9.990931            0            0            0            0            0            0 
14987000    684.30352     48949.18    347.11339    -496.0943    528.72101    32.626711    521.13291    -496.0943            0   -10.698638            0            0            0            0            0            0 
14988000    765.80787    52897.073    372.61391   -446.77187    567.56325    120.79139    711.57352   -446.77187            0   -9.9001612            0            0            0            0            0            0 
14989000    634.89735    52099.802    376.76483   -468.02139     573.8859    105.86451    588.27359   -468.02139            0   -10.051661            0            0            0            0            0            0 
14990000    790.72337    49600.175    367.93714   -477.06094    560.43963    83.378686    655.36242   -477.06094            0    -10.55822            0            0            0            0            0            0 
14991000    716.74599    50570.589     351.4465   -480.64643    535.32119    54.674756    583.28937   -480.64643            0   -10.355615            0            0            0            0            0            0 
14992000    654.53082    52502.959    349.09592   -464.82096    531.74079    66.919825    568.09525   -464.82096            0   -9.9744768            0            0            0            0            0            0 
14993000    961.44151    48835.014    371.12284   -478.20989    565.29206     87.08217    771.82907   -478.20989            0   -10.723649            0            0            0            0            0            0 
14994000    671.84061    53283.715    371.27128   -450.66859    565.51816    114.84956    636.92906   -450.66859            0   -9.8283228            0            0            0            0            0            0 
14995000    773.39961    52524.337    368.99104   -452.45786    562.04492    109.58706    702.02166   -452.45786            0   -9.9704171            0            0            0            0            0            0 
14996000    546.96689    50050.534    368.00157   -502.33218    560.53776    58.205577    457.45624   -502.33218            0   -10.463216            0            0            0            0            0            0 
14997000    669.35328    50903.977    335.73344    -472.6642    511.38715    38.722946    535.63896    -472.6642            0   -10.287792            0            0            0            0            0            0 
14998000    622.75616    50524.986     359.6896   -483.59374    547.87702    64.283283    523.16433   -483.59374            0   -10.364962            0            0            0            0            0            0 
14999000    771.00542    51297.479    360.02655   -461.34075    548.39025    87.049504    663.85494   -461.34075            0   -10.208875            0            0            0            0            0            0 
15000000    917.31079    51333.134    366.45312   -444.38272    558.17917    113.79645    800.53301   -444.38272            0   -10.201784            0            0            0            0            0            0 
Loop time of 1583.18 on 8 procs for 5000000 steps with 512 atoms

Pair  time (%) = 910.49 (57.5101)
Bond  time (%) = 0.463302 (0.029264)
Neigh time (%) = 34.4793 (2.17785)
Comm  time (%) = 491.079 (31.0185)
Outpt time (%) = 0.244081 (0.0154171)
Other time (%) = 146.426 (9.24884)

Nlocal:    64 ave 71 max 55 min
Histogram: 1 0 0 1 1 0 3 0 1 1
Nghost:    1385.5 ave 1421 max 1347 min
Histogram: 1 0 0 2 1 0 1 2 0 1
Neighs:    6442.5 ave 7044 max 5508 min
Histogram: 1 0 0 1 0 2 1 0 1 2

Total # of neighbors = 51540
Ave neighs/atom = 100.664
Ave special neighs/atom = 0
Neighbor list builds = 87617
Dangerous builds = 0

Averages
Group Pressure(MPa) Volume(m3) Temperature(K) PE(J) KE(J) ET(J) ET^2(J) H(J) H^2(J^2) V^2(m6) V*H(m3*J) Hconf(J) Uext*Hconf(J^2) V*Hconf(m3*J) Uext(J)
Block1 70.159957308727911141 5.1104228456685638409e-26 360.39822235624632185 -3.2794907539655194609e-18 3.8139814581675717705e-18 5.3449070420205009476e-19 3.1355535666797325765e-37 4.115140097390676845e-18 1.7167271358132184817e-35 2.6131525284009961591e-51 2.1024294564395001751e-43 3.0115863922310820411e-19 -9.6654260710777567247e-37 1.5341528514091942989e-44 -3.2794907539655194609e-18
Block2 69.682876463643381726 5.1116111868325575411e-26 359.76502258569723836 -3.2814281598490391165e-18 3.8072805034059085374e-18 5.2585234355686701343e-19 3.0558755243465832409e-37 4.0827529143163098671e-18 1.6917147231743564916e-35 2.6143989783422596218e-51 2.0863568119681711602e-43 2.7547241091039762229e-19 -8.8279403236319311386e-37 1.4023409062724154051e-44 -3.2814281598490391165e-18
Block3 70.151921377113140466 5.1070338238072644369e-26 360.85984458371876826 -3.281871534392412513e-18 3.8188666615538337927e-18 5.369951271614195464e-19 3.1640157414964178113e-37 4.1146872773441713647e-18 1.7162567022016777525e-35 2.6097183190221251104e-51 2.1008660116148293598e-43 2.9582061579032977193e-19 -9.5031262524970282513e-37 1.5051839424740982708e-44 -3.281871534392412513e-18
Block4 69.792906981611835704 5.1169289007129662068e-26 359.2861643219924872 -3.2730736827065714285e-18 3.802212896449034173e-18 5.291392137424613e-19 3.0674773203528881298e-37 4.0957633210711383051e-18 1.6999584093119819267e-35 2.6197062274618007868e-51 2.0952391659503765106e-43 2.9355042462210759879e-19 -9.4067413238984346631e-37 1.4968009479268226909e-44 -3.2730736827065714285e-18
Block5 70.18988006407425928 5.1137954718962431052e-26 360.81660518982073427 -3.276398489635589238e-18 3.8184090725970601527e-18 5.4201058296147129985e-19 3.2188859542852271634e-37 4.1255610228099072955e-18 1.7257535356140386098e-35 2.6167710737212464732e-51 2.1088999861760359763e-43 3.0715195021284825022e-19 -9.866438459837976994e-37 1.5627533108787915967e-44 -3.276398489635589238e-18
Ave_blocks 69.995508439034111348 5.1119584457835193705e-26 360.22517180749508725 -3.2784525241098264284e-18 3.8121501184346823015e-18 5.3369759432485385089e-19 3.1283616214321697844e-37 4.1067809265864405814e-18 1.7100821012230546525e-35 2.6147494253896858676e-51 2.0987582864297826364e-43 2.9463080815175827984e-19 -9.4539344861886255543e-37 1.5002463917922642533e-44 -3.2784525241098264284e-18
Stdev_blocks 0.21357662285426762261 3.3109106072371939359e-29 0.61253927795412665969 3.3097719879437815564e-21 6.4823112423877921806e-21 5.7085080240741983781e-21 6.0792643602831710188e-39 1.5387079891556461505e-20 1.2391333682172555115e-37 3.3657650888281242557e-54 7.5756827574768740339e-46 1.0667882945137681475e-20 3.4968669827431736868e-38 5.4182095792774767414e-46 3.3097719879437815564e-21






Properties
Group rho(kg/m3) Cp(J/K) Cp_conf(J/K) Cp_id(J/K) Cp2(J/K) kT(1/Pa) aP(1/K) aP2(1/K) Cv(J/K) uJT(K/Pa) sos(m/s) Cv2(J/K) uJT2(K/Pa) sos2(m/s) CvNVT(J/K)
Block1 266.89052104055241443 1.2986991716600003192e-19 2.78448778293105491e-21 3.2717566650889111475e-20 3.5502054433820167889e-20 5.939616784604448288e-09 -0.00063412608019694201647 -0.00053414560699888515884 1.2862301528376685272e-19 -4.8343360414245424504e-07 798.08500464980704692 3.461734558276763346e-20 -1.7165782496316260999e-06 804.32964051596115951 1.5544152850824604922e-20
Block2 266.82847465618556271 1.3893556178031443902e-19 2.5172298462417685823e-21 3.269020809620009303e-20 3.5207437942441863117e-20 6.0736333442309521476e-09 -0.00064343200967556860286 -0.0006313458853307326148 1.3768203532521596121e-19 -4.5307831951790709368e-07 789.09210803875657803 3.4000561284646987713e-20 -1.7816243737194729841e-06 799.3441407013153821 1.6265862680907332376e-20
Block3 267.06762928803721024 1.2899405251104966133e-19 2.1735209810636427966e-21 3.2737547115274618956e-20 3.4911068096338260248e-20 6.0479999684761466499e-09 -0.00056491851470039133095 -0.00060793441358297458689 1.2802160285092334656e-19 -4.7662161719900502247e-07 789.81740059815047061 3.3784885093365776897e-20 -1.7837925733177330997e-06 799.84130729467131005 1.5594940253934097933e-20
Block4 266.55117600480701867 1.2585731079028995552e-19 2.164427795900644018e-21 3.2669555486798819143e-20 3.4833983282699463161e-20 5.5553794343704572026e-09 -0.00058534098172657606646 -0.0005785045807217249151 1.2472346494667944504e-19 -4.9206868994814014076e-07 825.50170642167609003 3.3726467934684032878e-20 -1.7742661896741132469e-06 835.15863162792970797 1.5014558376539683702e-20
Block5 266.71450266513494398 1.3201029943742252027e-19 7.8775668721839647397e-22 3.2735674321860295769e-20 3.3523431009078690738e-20 6.5973116759673951254e-09 -0.0009003061434944199283 -0.00086587598700853273849 1.2974334236759620397e-19 -5.1321665572390694259e-07 760.42178564532025575 3.1426547714230827548e-20 -2.0020205864795023715e-06 778.60838462950960093 1.5640579741988922449e-20
Ave_blocks 266.81046073094341864 1.3113342833701532643e-19 2.0854846186711012809e-21 3.2710110334204590082e-20 3.4795594952875690234e-20 6.0427882415298800482e-09 -0.00066562474595877963238 -0.00064356129472856995945 1.2975869215483638597e-19 -4.8368377730628271009e-07 792.58360107074213374 3.3511161521939048088e-20 -1.8116563945644896028e-06 803.45642095387734116 1.561201878083892948e-20
Stdev_blocks 0.17280413249477111215 4.3738540205325976102e-21 6.8892518833069195134e-22 2.6467662550888971187e-23 6.7851432658361232459e-22 3.3367244915319778645e-10 0.00012095227955797556777 0.00011579851644056760236 4.2997757349560522728e-21 1.9642445907119212319e-08 20.823505282928756799 1.0890409979776969597e-21 9.8340959360361594948e-08 18.183495147233347922 3.9753841811876188744e-22






