LAMMPS (28 Oct 2012)
Scanning data file ...
Reading data file ...
  orthogonal box = (0 0 0) to (100 100 100)
  2 by 2 by 2 MPI processor grid
  512 atoms
Finding 1-2 1-3 1-4 neighbors ...
  0 = max # of 1-2 neighbors
  0 = max # of 1-3 neighbors
  0 = max # of 1-4 neighbors
  1 = max # of special neighbors
WARNING: Resetting reneighboring criteria during minimization (min.cpp:173)
Setting up minimization ...
Memory usage per processor = 4.05499 Mbytes
Step Temp E_pair E_mol TotEng Press 
       0       580.15    1409.7233            0    2293.4043    452.91153 
     701       580.15   -217.27527            0     666.4057    40.166635 
Loop time of 0.0546571 on 8 procs for 701 steps with 512 atoms

Minimization stats:
  Stopping criterion = energy tolerance
  Energy initial, next-to-last, final = 
         1409.72334813     -217.256630745     -217.275265106
  Force two-norm initial, final = 5034.49 0.337455
  Force max component initial, final = 2457.89 0.147661
  Final line search alpha, max atom move = 0.254892 0.0376377
  Iterations, force evaluations = 701 710

Pair  time (%) = 0.00896481 (16.4019)
Bond  time (%) = 6.09756e-05 (0.11156)
Neigh time (%) = 0.00314122 (5.74714)
Comm  time (%) = 0.0221429 (40.5123)
Outpt time (%) = 0 (0)
Other time (%) = 0.0203473 (37.2271)

Nlocal:    64 ave 74 max 52 min
Histogram: 1 0 0 1 1 2 0 2 0 1
Nghost:    235.125 ave 266 max 224 min
Histogram: 4 0 2 0 0 1 0 0 0 1
Neighs:    316.25 ave 371 max 226 min
Histogram: 1 0 0 1 1 1 0 1 0 3

Total # of neighbors = 2530
Ave neighs/atom = 4.94141
Ave special neighs/atom = 0
Neighbor list builds = 60
Dangerous builds = 0
Setting up run ...
Memory usage per processor = 3.36354 Mbytes
Step Temp E_pair E_mol TotEng Press Volume 
     701       580.15   -217.27527            0     666.4057    40.166635      1000000 
 5000701    561.44207   -236.10816            0      619.077    809.89769    80744.261 
Loop time of 1211.12 on 8 procs for 5000000 steps with 512 atoms

Pair  time (%) = 613.336 (50.6422)
Bond  time (%) = 0.457382 (0.0377653)
Neigh time (%) = 30.4891 (2.51744)
Comm  time (%) = 408.576 (33.7355)
Outpt time (%) = 4.1157e-05 (3.39827e-06)
Other time (%) = 158.259 (13.0672)

Nlocal:    64 ave 70 max 55 min
Histogram: 2 1 0 0 0 0 0 0 2 3
Nghost:    1026.38 ave 1054 max 1002 min
Histogram: 2 0 1 1 0 0 1 2 0 1
Neighs:    4103 ave 4584 max 3472 min
Histogram: 3 0 0 0 0 0 0 1 2 2

Total # of neighbors = 32824
Ave neighs/atom = 64.1094
Ave special neighs/atom = 0
Neighbor list builds = 111246
Dangerous builds = 5
Setting up run ...
Memory usage per processor = 3.9403 Mbytes
Step Press Volume Temp PotEng KinEng TotEng Enthalpy E_vdwl E_coul E_tail E_long E_bond E_angle E_dihed E_impro E_mol 
10000000    809.89769    80744.261    561.44207   -236.10816    855.18516      619.077      1572.79   -236.10816            0   -6.4857804            0            0            0            0            0            0 
10001000    746.60362    75306.053    618.65335   -286.92714    942.32904     655.4019    1475.3679   -286.92714            0   -6.9541495            0            0            0            0            0            0 
10002000    692.05772    73775.041    585.42941   -298.20764    891.72253    593.51489    1338.1228   -298.20764            0    -7.098465            0            0            0            0            0            0 
10003000    615.28911    81090.663    562.38951   -263.75973    856.62829    592.86857    1320.5243   -263.75973            0   -6.4580746            0            0            0            0            0            0 
10004000    754.09037    77858.188    606.80335    -270.5897    924.27918    653.68949    1509.9454    -270.5897            0   -6.7261974            0            0            0            0            0            0 
10005000    665.60318    74799.324    568.73531    -295.4419    866.29417    570.85227    1296.9398    -295.4419            0   -7.0012604            0            0            0            0            0            0 
10006000    644.55897    77172.729     576.2735   -279.14585     877.7763    598.63045     1324.072   -279.14585            0   -6.7859404            0            0            0            0            0            0 
10007000    607.55479    77469.051    578.35018   -291.25799    880.93948    589.68149    1276.1009   -291.25799            0    -6.759984            0            0            0            0            0            0 
10008000    624.56533    77468.988    563.13131    -285.5625    857.75819    572.19568    1277.8332    -285.5625            0   -6.7599895            0            0            0            0            0            0 
10009000    782.69467    74383.221    611.70255   -285.62432    931.74161    646.11728    1495.1868   -285.62432            0   -7.0404258            0            0            0            0            0            0 
10010000    677.54413    78559.583     592.4768   -274.30356    902.45707    628.15352    1404.4232   -274.30356            0   -6.6661446            0            0            0            0            0            0 
10011000    728.68465    77507.438     561.7478   -266.85434    855.65084    588.79649    1412.4772   -266.85434            0    -6.756636            0            0            0            0            0            0 
10012000    592.78645    77346.175    562.68479   -298.14593    857.07805    558.93212    1227.6039   -298.14593            0   -6.7707233            0            0            0            0            0            0 
10013000    647.30699    79041.413    587.36214   -274.96638    894.66646    619.70008    1365.8754   -274.96638            0   -6.6255084            0            0            0            0            0            0 
10014000    696.41376     73698.62    538.29426   -291.88864    819.92655    528.03791    1276.5565   -291.88864            0   -7.1058257            0            0            0            0            0            0 
10015000    669.18961    78186.604     591.5133   -277.52806    900.98948    623.46141    1386.5192   -277.52806            0   -6.6979446            0            0            0            0            0            0 
10016000    694.61685    74904.078    594.16301   -293.25312    905.02549    611.77237    1370.5712   -293.25312            0   -6.9914691            0            0            0            0            0            0 
10017000    702.02214    79031.491    572.55078    -266.6245    872.10587    605.48137    1414.6273    -266.6245            0   -6.6263402            0            0            0            0            0            0 
10018000    663.74244    76007.681    603.58997   -291.31383    919.38459    628.07076    1363.8253   -291.31383            0   -6.8899555            0            0            0            0            0            0 
10019000    669.48211    74857.008    556.62751   -299.01814    847.85164     548.8335    1279.7156   -299.01814            0   -6.9958653            0            0            0            0            0            0 
10020000    666.40549    77459.823    586.00678   -277.74554    892.60197    614.85642    1367.6761   -277.74554            0   -6.7607893            0            0            0            0            0            0 
10021000    752.75963    76791.344    589.75546   -267.70084    898.31194     630.6111    1473.6439   -267.70084            0   -6.8196429            0            0            0            0            0            0 
10022000    680.36709    79420.643    570.45108   -277.30285    868.90762    591.60477    1379.6526   -277.30285            0   -6.5938719            0            0            0            0            0            0 
10023000    732.97685    77723.025    559.08301   -264.35682    851.59185    587.23503    1418.0721   -264.35682            0   -6.7378946            0            0            0            0            0            0 
10024000    690.86548    76405.648    588.39644   -283.00135    896.24189    613.24054    1383.0706   -283.00135            0   -6.8540685            0            0            0            0            0            0 
10025000    743.46396    77374.088    599.38867   -273.93172    912.98519    639.05347    1477.9943   -273.93172            0   -6.7682807            0            0            0            0            0            0 
10026000    631.95602    78117.009    547.82811   -284.57526    834.44845    549.87319    1269.8332   -284.57526            0   -6.7039119            0            0            0            0            0            0 
10027000    697.49061    78144.574    598.95012   -271.23764    912.31719    641.07955    1435.9806   -271.23764            0   -6.7015471            0            0            0            0            0            0 
10028000    658.30192    79200.584    608.21397   -288.17694    926.42783     638.2509    1398.6286   -288.17694            0    -6.612193            0            0            0            0            0            0 
10029000    650.44516    79787.586    591.04896   -266.89688    900.28219    633.38531    1390.2564   -266.89688            0   -6.5635467            0            0            0            0            0            0 
10030000    627.99984    77731.716    537.82451   -283.20727    819.21104    536.00377    1247.9278   -283.20727            0   -6.7371411            0            0            0            0            0            0 
10031000    680.15947    80455.121    567.49604   -259.76505    864.40653    604.64147    1402.7103   -259.76505            0   -6.5090891            0            0            0            0            0            0 
10032000    721.96368    72772.834    573.04739   -296.05231     872.8623       576.81    1343.0424   -296.05231            0    -7.196223            0            0            0            0            0            0 
10033000    695.95685     75965.93    592.27107   -288.24082     902.1437    613.90289    1384.9432   -288.24082            0   -6.8937423            0            0            0            0            0            0 
10034000    735.37905    79299.812    591.10173   -259.35172    900.36257    641.01085    1491.4814   -259.35172            0   -6.6039191            0            0            0            0            0            0 
10035000    700.35135    75501.934    571.89173   -289.71275    871.10201    581.38926    1352.5589   -289.71275            0   -6.9361077            0            0            0            0            0            0 
10036000    638.81316    75471.829    587.86167   -297.73464    895.42733    597.69269     1300.821   -297.73464            0   -6.9388744            0            0            0            0            0            0 
10037000    664.59812    78507.501    554.37547   -271.40447    844.42136    573.01688    1333.9494   -271.40447            0    -6.670567            0            0            0            0            0            0 
10038000    643.06943    76564.529    562.77143   -282.75041    857.21003    574.45962    1292.5207   -282.75041            0   -6.8398455            0            0            0            0            0            0 
10039000    668.59103    75434.021    603.22573   -298.16221    918.82978    620.66757    1356.2032   -298.16221            0   -6.9423523            0            0            0            0            0            0 
10040000    628.09279    75949.202    600.15239   -301.53942    914.14847    612.60906    1308.3105   -301.53942            0   -6.8952607            0            0            0            0            0            0 
10041000    632.02479    79975.043    567.40997   -275.01428    864.27543    589.26115    1326.4258   -275.01428            0   -6.5481621            0            0            0            0            0            0 
10042000     746.0727    76370.544    603.93956   -285.45231    919.91708    634.46477    1465.4301   -285.45231            0    -6.857219            0            0            0            0            0            0 
10043000    663.24951    82847.237    588.54867   -249.98468    896.47377    646.48909     1447.855   -249.98468            0   -6.3211468            0            0            0            0            0            0 
10044000    815.40029    74709.917    627.04054   -279.03503    955.10436    676.06932     1564.503   -279.03503            0    -7.009639            0            0            0            0            0            0 
10045000    733.80576    78094.683    590.75881   -268.50692    899.84023    631.33332    1467.0873   -268.50692            0   -6.7058285            0            0            0            0            0            0 
10046000    760.67402    75987.799    642.25164   -286.70991    978.27381     691.5639     1534.546   -286.70991            0   -6.8917583            0            0            0            0            0            0 
10047000    648.55981    80608.339    602.48022   -272.90027    917.69422    644.79395    1407.2343   -272.90027            0   -6.4967167            0            0            0            0            0            0 
10048000    812.99491    73838.501     561.6647   -273.81678    855.52427    581.70748    1457.1882   -273.81678            0   -7.0923642            0            0            0            0            0            0 
10049000    703.88283    74986.087    599.14273   -294.23922    912.61058    618.37136    1388.1342   -294.23922            0   -6.9838228            0            0            0            0            0            0 
10050000    621.34207     79588.86     585.5073   -277.91535    891.84117    613.92582    1335.1312   -277.91535            0   -6.5799352            0            0            0            0            0            0 
10051000    659.90156    75072.585    554.81913   -284.09936    845.09713    560.99777    1283.4954   -284.09936            0   -6.9757761            0            0            0            0            0            0 
10052000    692.94152    77026.163    607.10948   -270.73924    924.74548    654.00625    1432.4204   -270.73924            0   -6.7988528            0            0            0            0            0            0 
10053000    683.12008    76906.047    572.31207   -275.66721    871.74228    596.07507    1362.2597   -275.66721            0   -6.8094716            0            0            0            0            0            0 
10054000    699.11299    76037.777    617.39803   -290.61713    940.41693     649.7998    1425.0693   -290.61713            0   -6.8872285            0            0            0            0            0            0 
10055000    592.38419    82314.019    572.95565   -267.83008    872.72257     604.8925    1316.0293   -267.83008            0   -6.3620942            0            0            0            0            0            0 
10056000    613.99764    76309.389     560.1616   -291.55541    853.23475    561.67935    1244.9937   -291.55541            0   -6.8627145            0            0            0            0            0            0 
10057000    615.70155    77371.612     573.1205   -288.99227    872.97368    583.98141    1278.7302   -288.99227            0   -6.7684973            0            0            0            0            0            0 
10058000     765.0637    75208.018    584.21046   -284.55899    889.86583    605.30684     1444.453   -284.55899            0   -6.9632143            0            0            0            0            0            0 
10059000    758.08332    78126.223    575.69621   -258.03213    876.89697    618.86484     1482.618   -258.03213            0   -6.7031212            0            0            0            0            0            0 
10060000    737.18537    76235.985     560.8274   -274.40549    854.24889     579.8434    1399.4635   -274.40549            0   -6.8693222            0            0            0            0            0            0 
10061000    568.75967    77566.007    536.22824   -298.56179     816.7796    518.21782    1161.6105   -298.56179            0   -6.7515341            0            0            0            0            0            0 
10062000    678.49448    73906.824    572.04825   -305.52135    871.34043    565.81908    1297.1379   -305.52135            0   -7.0858077            0            0            0            0            0            0 
10063000     542.5326     82902.54    600.83582   -267.39759    915.18948    647.79189    1303.7401   -267.39759            0     -6.31693            0            0            0            0            0            0 
10064000    762.67392    75425.344     609.6281   -279.03215    928.58182    649.54967     1488.492   -279.03215            0   -6.9431509            0            0            0            0            0            0 
10065000    712.21956    78779.018    555.70247   -262.35415    846.44264    584.08849    1402.3655   -262.35415            0   -6.6475764            0            0            0            0            0            0 
10066000    656.15559    76246.168    577.00531   -297.07087    878.89099    581.82012    1311.4469   -297.07087            0   -6.8684048            0            0            0            0            0            0 
10067000    636.33271    75081.453    602.69411    -293.2345    918.02001    624.78551    1321.5609    -293.2345            0   -6.9749521            0            0            0            0            0            0 
10068000    777.71671    78293.758    577.24677   -262.48874    879.25878    616.77004    1504.7935   -262.48874            0   -6.6887777            0            0            0            0            0            0 
10069000    581.04772    79046.795    574.13579   -290.73396    874.52015    583.78619    1253.6275   -290.73396            0   -6.6250573            0            0            0            0            0            0 
10070000    785.30753    71441.738    595.42263   -299.60693    906.94414    607.33721    1425.5526   -299.60693            0   -7.3303024            0            0            0            0            0            0 
10071000    603.61522    81928.377    563.34408   -266.45465    858.08229    591.62764    1312.8521   -266.45465            0    -6.392041            0            0            0            0            0            0 
10072000    696.96609    76001.049     600.6238   -285.42851    914.86652    629.43802    1401.9534   -285.42851            0   -6.8905568            0            0            0            0            0            0 
10073000     658.9305    79764.726    547.09913   -257.25548    833.33808    576.08261    1342.6077   -257.25548            0   -6.5654278            0            0            0            0            0            0 
10074000    654.56687    77235.826    564.01031   -282.79517    859.09708    576.30191    1313.6095   -282.79517            0   -6.7803968            0            0            0            0            0            0 
10075000    803.33432    73658.495    602.41152   -291.51124    917.58957    626.07833    1489.0471   -291.51124            0   -7.1096965            0            0            0            0            0            0 
10076000    664.59754    80486.664      593.914   -259.57691     904.6462    645.06929    1425.1841   -259.57691            0   -6.5065381            0            0            0            0            0            0 
10077000    689.33286    74887.477    558.62822   -285.94152    850.89912    564.95759    1317.8173   -285.94152            0   -6.9930189            0            0            0            0            0            0 
10078000    820.77337    76179.042    603.06599   -272.60068    918.58646    645.98577    1557.8594   -272.60068            0    -6.874457            0            0            0            0            0            0 
10079000    651.96586    78059.939    570.66625   -284.83719    869.23538    584.39818    1326.6119   -284.83719            0   -6.7088131            0            0            0            0            0            0 
10080000    668.08095    74765.803     551.8463   -289.57619    840.56894    550.99274    1279.4566   -289.57619            0   -7.0043994            0            0            0            0            0            0 
10081000    723.86247    78851.065    619.22402   -281.96641    943.19827    661.23186    1493.6461   -281.96641            0   -6.6415025            0            0            0            0            0            0 
10082000    743.21793    75121.955    585.60494   -282.70449     891.9899    609.28541    1423.5376   -282.70449            0   -6.9711917            0            0            0            0            0            0 
10083000    748.01678    74206.577    582.11197   -287.65022    886.66942     599.0192     1408.543   -287.65022            0    -7.057185            0            0            0            0            0            0 
10084000    572.90443    81773.757    575.27055    -279.8969    876.24862    596.35171    1279.5897    -279.8969            0   -6.4041272            0            0            0            0            0            0 
10085000    752.35604    75499.948    611.47199   -281.80838    931.39042    649.58204    1477.9932   -281.80838            0   -6.9362902            0            0            0            0            0            0 
10086000      680.804    77540.513    580.69856   -272.49304    884.51652    612.02348    1381.9099   -272.49304            0   -6.7537539            0            0            0            0            0            0 
10087000    668.75354    76504.711    560.52618   -283.19099    853.79007    570.59908     1316.756   -283.19099            0   -6.8451934            0            0            0            0            0            0 
10088000    656.24874    74985.058    541.70013   -290.36606    825.11435    534.74829    1252.4089   -290.36606            0   -6.9839187            0            0            0            0            0            0 
10089000    643.58656    79967.663    592.89509   -281.88672     903.0942    621.20748    1371.7879   -281.88672            0   -6.5487664            0            0            0            0            0            0 
10090000    737.60725    77924.796    598.68237   -268.72173    911.90936    643.18763    1481.4438   -268.72173            0   -6.7204481            0            0            0            0            0            0 
10091000    745.34654    75273.263    569.59107   -284.56158    867.59766    583.03608    1401.2651   -284.56158            0   -6.9571788            0            0            0            0            0            0 
10092000    620.58978     81996.34    583.46399   -263.28256    888.72881    625.44625    1367.5677   -263.28256            0    -6.386743            0            0            0            0            0            0 
10093000    709.06476    73938.055    554.72154    -289.6044    844.94848    555.34408    1319.9362    -289.6044            0   -7.0828147            0            0            0            0            0            0 
10094000    652.17184    74058.171    580.70949   -301.87044    884.53318    582.66274    1287.0491   -301.87044            0    -7.071327            0            0            0            0            0            0 
10095000    657.64728    77674.294    606.85722   -284.95654    924.36124     639.4047    1384.3875   -284.95654            0   -6.7421218            0            0            0            0            0            0 
10096000    772.01718    72483.605    600.16279   -297.42406    914.16432    616.74027    1432.8389   -297.42406            0   -7.2249379            0            0            0            0            0            0 
10097000    654.01422    78380.839     569.7187   -274.40991    867.79206    593.38216    1340.9885   -274.40991            0   -6.6813465            0            0            0            0            0            0 
10098000    693.03838    76331.933    576.17267   -284.06831    877.62272    593.55441    1365.0606   -284.06831            0   -6.8606876            0            0            0            0            0            0 
10099000    688.63872    77141.917    564.30976   -269.63868     859.5532    589.91452    1364.6577   -269.63868            0   -6.7886509            0            0            0            0            0            0 
10100000    693.01056    79076.703     550.0913   -254.28972    837.89573    583.60602    1382.8222   -254.28972            0   -6.6225516            0            0            0            0            0            0 
10101000     785.6263    75907.893    594.71901   -270.99221    905.87238    634.88017    1504.5989   -270.99221            0    -6.899013            0            0            0            0            0            0 
10102000    716.13964    81131.433    588.22505   -256.72976    895.98082    639.25106    1486.6009   -256.72976            0   -6.4548292            0            0            0            0            0            0 
10103000    704.57284    77562.186    607.57318   -275.49572    925.45178    649.95606    1446.9441   -275.49572            0   -6.7518668            0            0            0            0            0            0 
10104000    772.89631    75994.691    609.69353   -281.10703    928.68149    647.57447     1504.179   -281.10703            0   -6.8911333            0            0            0            0            0            0 
10105000    624.79338    80927.791    583.56559   -268.95917    888.88357    619.92441    1357.3361   -268.95917            0   -6.4710718            0            0            0            0            0            0 
10106000    727.58692    79570.359     587.9937   -255.36171    895.62845    640.26673    1484.5965   -255.36171            0   -6.5814652            0            0            0            0            0            0 
10107000    706.38303    74282.346    530.00677   -287.38108     807.3031    519.92202    1285.1692   -287.38108            0   -7.0499866            0            0            0            0            0            0 
10108000    669.19951    81392.835    619.76566   -261.66861     944.0233    682.35469    1476.7153   -261.66861            0   -6.4340988            0            0            0            0            0            0 
10109000    737.46126    75916.283    605.97455   -284.23629    923.01676    638.78047    1455.2689   -284.23629            0   -6.8982506            0            0            0            0            0            0 
10110000    690.95699    76219.711    545.42435   -271.92194    830.78706    558.86512    1326.9234   -271.92194            0   -6.8707889            0            0            0            0            0            0 
10111000    737.91535    78111.247    612.11782    -275.9462    932.37415    656.42794    1497.0408    -275.9462            0   -6.7044064            0            0            0            0            0            0 
10112000    648.77474    77336.054    571.96361   -279.99624     871.2115    591.21526    1322.9469   -279.99624            0   -6.7716094            0            0            0            0            0            0 
10113000      731.763    71594.357    584.51422   -310.77469    890.32852    579.55383    1343.6097   -310.77469            0   -7.3146763            0            0            0            0            0            0 
10114000    613.20136    79228.194    566.46686   -277.39717    862.83889    585.44172    1293.9726   -277.39717            0   -6.6098887            0            0            0            0            0            0 
10115000    766.71603    75834.357    599.49577   -287.38907    913.14833    625.75926    1473.7214   -287.38907            0    -6.905703            0            0            0            0            0            0 
10116000    639.35186    80454.074     618.2103   -272.92674    941.65418    668.72743    1418.9046   -272.92674            0   -6.5091737            0            0            0            0            0            0 
10117000    836.82193    72667.338    587.74988   -293.37571    895.25705    601.88134    1488.7273   -293.37571            0   -7.2066703            0            0            0            0            0            0 
10118000    644.59799    80612.649    575.46316   -267.26439      876.542    609.27761     1367.101   -267.26439            0   -6.4963694            0            0            0            0            0            0 
10119000    790.12033    79302.248    572.13299   -246.36372     871.4695    625.10578    1538.9131   -246.36372            0   -6.6037163            0            0            0            0            0            0 
10120000    736.03552    76689.328    591.16875   -273.70746    900.46466     626.7572    1449.9652   -273.70746            0   -6.8287147            0            0            0            0            0            0 
10121000    649.66656     78897.61    569.70629   -270.78626    867.77316     596.9869    1344.5197   -270.78626            0   -6.6375844            0            0            0            0            0            0 
10122000    681.13949    78883.182    600.02298   -262.44827    913.95137    651.50309    1435.1066   -262.44827            0   -6.6387984            0            0            0            0            0            0 
10123000    707.19856    77061.371    600.42688   -275.13493    914.56659    639.43166    1434.2246   -275.13493            0   -6.7957466            0            0            0            0            0            0 
10124000    796.40582    75322.378     576.2842   -275.70538     877.7926    602.08721    1476.9387   -275.70538            0   -6.9526423            0            0            0            0            0            0 
10125000    622.39511    80026.335    567.06179   -279.17943    863.74509    584.56566    1310.9642   -279.17943            0   -6.5439651            0            0            0            0            0            0 
10126000    735.09914    78413.076    572.81433   -268.51728    872.50731    603.99003    1444.6305   -268.51728            0   -6.6785997            0            0            0            0            0            0 
10127000    712.74642    79319.234    592.66155   -261.95002    902.73848    640.78846    1465.2862   -261.95002            0   -6.6023021            0            0            0            0            0            0 
10128000    717.25053    78659.599    605.38643   -269.80478    922.12094    652.31616    1475.1241   -269.80478            0   -6.6576686            0            0            0            0            0            0 
10129000    662.38972    78868.996    597.61051   -277.67704     910.2767    632.59966    1394.4958   -277.67704            0   -6.6399925            0            0            0            0            0            0 
10130000    652.83826    78408.911     582.1088   -281.44118    886.66459    605.22341    1351.7528   -281.44118            0   -6.6789545            0            0            0            0            0            0 
10131000    622.67281    76690.373    554.80375   -284.84173    845.07371    560.23198    1256.6606   -284.84173            0   -6.8286217            0            0            0            0            0            0 
10132000    690.04183    77449.142    568.07983   -271.63521    865.29576    593.66054     1373.074   -271.63521            0   -6.7617217            0            0            0            0            0            0 
10133000    714.97906    80194.975    573.01678   -256.37369    872.81568    616.44199    1452.6539   -256.37369            0    -6.530204            0            0            0            0            0            0 
10134000    728.10691    76789.907    611.10846   -283.61208    930.83669    647.22461     1462.633   -283.61208            0   -6.8197706            0            0            0            0            0            0 
10135000    669.89144    80320.898    599.97482   -274.20877    913.87801    639.66923    1424.3787   -274.20877            0   -6.5199663            0            0            0            0            0            0 
10136000    645.79013    75316.169    534.61944   -293.48636     814.3291    520.84274    1230.1845   -293.48636            0   -6.9532154            0            0            0            0            0            0 
10137000     788.8515    73306.337     563.9978   -278.91295    859.07802    580.16507    1423.5244   -278.91295            0   -7.1438509            0            0            0            0            0            0 
10138000    621.92415    79255.023    560.06043   -277.13791    853.08065    575.94275    1294.7958   -277.13791            0   -6.6076512            0            0            0            0            0            0 
10139000    735.76814    76592.274    585.61709   -277.13198     892.0084    614.87642     1436.744   -277.13198            0   -6.8373678            0            0            0            0            0            0 
10140000    661.19742    77157.841    589.81396   -286.49042    898.40105    611.91063    1355.9349   -286.49042            0   -6.7872498            0            0            0            0            0            0 
10141000    680.00619    77978.872    579.68698   -279.21223    882.97569    603.76346     1377.095   -279.21223            0   -6.7157876            0            0            0            0            0            0 
10142000    609.57391    75086.713     553.1912   -292.04675    842.61749    550.57074    1218.0924   -292.04675            0   -6.9744636            0            0            0            0            0            0 
10143000    666.93108    74992.474    552.80737   -290.93516    842.03283    551.09767    1280.5124   -290.93516            0    -6.983228            0            0            0            0            0            0 
10144000    696.95008    82397.226    582.33793   -250.89493    887.01361    636.11867     1473.629   -250.89493            0   -6.3556696            0            0            0            0            0            0 
10145000    756.78314    76970.814     571.3398   -265.08029    870.26132    605.18104    1454.7007   -265.08029            0   -6.8037418            0            0            0            0            0            0 
10146000    768.50175    76825.955     582.1525   -270.28579    886.73116    616.44537    1477.4961   -270.28579            0   -6.8165706            0            0            0            0            0            0 
10147000    628.18482    80245.364    571.33724   -272.94719    870.25741    597.31023    1332.4726   -272.94719            0   -6.5261034            0            0            0            0            0            0 
10148000    689.82402    78378.986    572.57333   -268.42637    872.14022    603.71386    1392.2359   -268.42637            0   -6.6815045            0            0            0            0            0            0 
10149000    734.22753    74990.141     610.0082   -297.02836     929.1608    632.13244    1435.1235   -297.02836            0   -6.9834453            0            0            0            0            0            0 
10150000    654.42558    77412.999    608.58637   -295.07694    926.99507    631.91812    1370.7575   -295.07694            0   -6.7648787            0            0            0            0            0            0 
10151000    762.95303     74900.76    612.39278   -285.33579    932.79297    647.45718    1480.8695   -285.33579            0   -6.9917788            0            0            0            0            0            0 
10152000    678.71757    83244.277    573.62595   -237.92611    873.74357    635.81746    1459.8026   -237.92611            0   -6.2909976            0            0            0            0            0            0 
10153000    657.70666    75420.083    564.73539   -299.06646    860.20153    561.13506    1284.5628   -299.06646            0   -6.9436353            0            0            0            0            0            0 
10154000    822.87915    75686.532    610.21231   -257.86268     929.4717    671.60902    1579.9116   -257.86268            0   -6.9191906            0            0            0            0            0            0 
10155000    683.03683    79368.822    579.30233   -260.79499     882.3898     621.5948    1412.2187   -260.79499            0   -6.5981771            0            0            0            0            0            0 
10156000    658.70627    75172.768    574.60037   -294.37911    875.22781     580.8487    1303.0001   -294.37911            0   -6.9664795            0            0            0            0            0            0 
10157000    691.23965    75129.287    565.61143   -290.57786     861.5359    570.95804     1328.338   -290.57786            0   -6.9705113            0            0            0            0            0            0 
10158000    673.64998    84419.739    594.32725   -243.44737    905.27566     661.8283    1491.2095   -243.44737            0   -6.2034016            0            0            0            0            0            0 
10159000    654.85548    76631.085    541.90362   -279.38601     825.4243    546.03829    1277.8955   -279.38601            0   -6.8339049            0            0            0            0            0            0 
10160000    664.03275    78321.688    558.96856   -275.83574    851.41753    575.58178    1334.0675   -275.83574            0   -6.6863925            0            0            0            0            0            0 
10161000    647.60253    76225.175    570.13523   -291.09396    868.42653    577.33256    1297.2503   -291.09396            0   -6.8702964            0            0            0            0            0            0 
10162000     732.8206    76284.902     575.2002   -276.53939    876.14146    599.60207    1414.8921   -276.53939            0   -6.8649173            0            0            0            0            0            0 
10163000      693.483    80087.819    607.67654   -261.80062    925.60923    663.80861    1473.7958   -261.80062            0   -6.5389413            0            0            0            0            0            0 
10164000    724.61976    73983.523    561.63471   -281.79561    855.47858    573.68297    1355.5287   -281.79561            0   -7.0784618            0            0            0            0            0            0 
10165000     643.6383    78371.493    559.85686   -273.35745    852.77057    579.41312     1315.071   -273.35745            0   -6.6821432            0            0            0            0            0            0 
10166000    697.44893    75840.421    551.09898   -283.71148    839.43063    555.71914    1327.1359   -283.71148            0   -6.9051508            0            0            0            0            0            0 
10167000    685.87838    77062.628    617.27125   -283.95115    940.22382    656.27267    1427.1172   -283.95115            0   -6.7956357            0            0            0            0            0            0 
10168000    847.90142    76916.468     605.2138   -258.01705    921.85798    663.84093    1614.9725   -258.01705            0    -6.808549            0            0            0            0            0            0 
10169000    705.83381    77253.247    574.18214     -274.986    874.59075    599.60474     1394.839     -274.986            0   -6.7788677            0            0            0            0            0            0 
10170000    632.85342    77752.944    550.09357   -275.77436     837.8992    562.12484     1279.747   -275.77436            0   -6.7353018            0            0            0            0            0            0 
10171000    664.75385    77379.995    588.52024   -290.16935    896.43046    606.26111    1356.4411   -290.16935            0    -6.767764            0            0            0            0            0            0 
10172000    735.35605    74539.749    611.05755   -293.09331    930.75916    637.66585     1437.061   -293.09331            0   -7.0256414            0            0            0            0            0            0 
10173000    560.07189    81976.246    578.61639   -278.42022    881.34497    602.92475    1272.5128   -278.42022            0   -6.3883085            0            0            0            0            0            0 
10174000    809.57527    74194.036    584.88737   -278.77631    890.89689    612.12058    1488.1166   -278.77631            0   -7.0583779            0            0            0            0            0            0 
10175000    599.79901    77986.986    567.55473   -287.67664    864.49592    576.81929    1259.0068   -287.67664            0   -6.7150889            0            0            0            0            0            0 
10176000    650.00504    76985.072    582.24786   -287.65657    886.87641    599.21984    1329.0119   -287.65657            0   -6.8024818            0            0            0            0            0            0 
10177000    736.39492    75451.174    588.62567    -281.2621    896.59105    615.32895    1425.6417    -281.2621            0    -6.940774            0            0            0            0            0            0 
10178000    729.90037    75611.476    589.02166   -290.74229    897.19422    606.45193    1411.3246   -290.74229            0    -6.926059            0            0            0            0            0            0 
10179000    703.33823    76398.735    565.71359   -287.62322    861.69151    574.06828    1357.7258   -287.62322            0   -6.8546887            0            0            0            0            0            0 
10180000    682.34086    80036.889    563.20186   -274.20198    857.86566    583.66368    1380.1301   -274.20198            0   -6.5431022            0            0            0            0            0            0 
10181000    700.85398    77217.699    572.11226   -275.76256    871.43792    595.67536    1384.9357   -275.76256            0   -6.7819885            0            0            0            0            0            0 
10182000    683.78089    76977.588    602.88423   -286.17591    918.30961     632.1337    1399.7729   -286.17591            0   -6.8031431            0            0            0            0            0            0 
10183000    714.03304    81552.269    621.80588   -253.13614    947.13095    693.99481    1543.2344   -253.13614            0   -6.4215203            0            0            0            0            0            0 
10184000    721.48778    77834.159    571.78035   -274.19875    870.93237    596.73362     1415.717   -274.19875            0    -6.728274            0            0            0            0            0            0 
10185000    609.71033    80629.572    583.35405   -288.56486    888.56136     599.9965    1316.9546   -288.56486            0   -6.4950059            0            0            0            0            0            0 
10186000    557.39807    80527.573    564.48925   -281.96857     859.8266    577.85804    1232.4731   -281.96857            0   -6.5032327            0            0            0            0            0            0 
10187000    739.71974    74521.765    589.12486   -293.80241    897.35142    603.54901    1407.4938   -293.80241            0   -7.0273369            0            0            0            0            0            0 
10188000    700.55165    75676.608    575.33756   -279.58461    876.35067    596.76607    1369.9409   -279.58461            0    -6.920098            0            0            0            0            0            0 
10189000    707.94825    75083.031    581.13658   -287.64677    885.18371    597.53693    1372.7466   -287.64677            0   -6.9748056            0            0            0            0            0            0 
10190000    638.37569    79107.585    564.52754   -277.00845    859.88492    582.87647    1319.3724   -277.00845            0   -6.6199662            0            0            0            0            0            0 
10191000       688.93     75957.47    554.85325   -279.98665     845.1491    565.16245    1328.3328   -279.98665            0   -6.8945101            0            0            0            0            0            0 
10192000    649.60893    79277.532    568.55976   -275.52133    866.02678    590.50546    1341.5713   -275.52133            0   -6.6057751            0            0            0            0            0            0 
10193000    720.64755    76157.807    573.28277   -273.85363    873.22083    599.36721    1399.7785   -273.85363            0   -6.8763737            0            0            0            0            0            0 
10194000      627.798    76582.757    587.68565   -290.54981    895.15921     604.6094     1305.785   -290.54981            0   -6.8382174            0            0            0            0            0            0 
10195000    814.64003    75754.306    639.82927   -279.44051    974.58406    695.14356    1595.1569   -279.44051            0   -6.9130004            0            0            0            0            0            0 
10196000    699.70736    78314.845    585.70653   -274.78016    892.14463    617.36447    1416.5294   -274.78016            0   -6.6869768            0            0            0            0            0            0 
10197000    691.21875    74908.085    546.50412   -293.32619    832.43177    539.10558    1294.2328   -293.32619            0    -6.991095            0            0            0            0            0            0 
10198000    641.48295    80004.328     622.0507   -278.88709    947.50386    668.61677    1417.0869   -278.88709            0   -6.5457652            0            0            0            0            0            0 
10199000    759.09229    77845.866    583.42215   -265.99987    888.66508    622.66521    1484.4643   -265.99987            0   -6.7272621            0            0            0            0            0            0 
10200000    816.42155    74307.518    592.69129   -275.84432    902.78377    626.93946    1511.6946   -275.84432            0   -7.0475984            0            0            0            0            0            0 
10201000    692.17722    81275.852    591.83142   -257.24627    901.47403    644.22776    1464.6827   -257.24627            0   -6.4433596            0            0            0            0            0            0 
10202000    624.54773    79161.542    541.37901   -273.88394    824.62522    550.74129    1271.7753   -273.88394            0   -6.6154541            0            0            0            0            0            0 
10203000     722.5355     74987.45    558.56447   -282.72326    850.80201    568.07875    1358.2544   -282.72326            0   -6.9836959            0            0            0            0            0            0 
10204000    651.67984    79538.866    576.59371   -269.20305    878.26404    609.06099    1365.0049   -269.20305            0    -6.584071            0            0            0            0            0            0 
10205000    673.91213    77024.419     600.3143   -286.92776    914.39511    627.46734    1384.4878   -286.92776            0   -6.7990068            0            0            0            0            0            0 
10206000    718.15355    79358.225    579.07863   -261.94297    882.04906    620.10609    1451.2671   -261.94297            0   -6.5990582            0            0            0            0            0            0 
10207000    658.77421    77413.213    571.40014   -292.01617    870.35323    578.33706    1322.0881   -292.01617            0   -6.7648599            0            0            0            0            0            0 
10208000    651.30149    76840.807    542.28757   -279.38521    826.00914    546.62393    1276.5013   -279.38521            0   -6.8152531            0            0            0            0            0            0 
10209000     581.5935    78806.821    577.31535   -291.48944    879.36324    587.87381    1256.3089   -291.48944            0   -6.6452312            0            0            0            0            0            0 
10210000    598.94186     75268.89    562.32308   -302.74357     856.5271    553.78353    1211.2537   -302.74357            0    -6.957583            0            0            0            0            0            0 
10211000    643.75118    78856.137    579.66945   -279.16673    882.94899    603.78226    1344.1192   -279.16673            0   -6.6410753            0            0            0            0            0            0 
10212000    678.21283    78446.141    568.98352   -272.11934    866.67225    594.55291    1370.4667   -272.11934            0   -6.6757847            0            0            0            0            0            0 
10213000    676.26295    76275.428     596.4173   -291.33053    908.45921    617.12868    1369.4028   -291.33053            0     -6.86577            0            0            0            0            0            0 
10214000    717.69181    78184.894    600.07106   -266.01561     914.0246    648.00899    1466.3546   -266.01561            0   -6.6980911            0            0            0            0            0            0 
10215000    698.92345    79222.529    547.34697   -260.53712    833.71558    573.17847    1380.7002   -260.53712            0   -6.6103614            0            0            0            0            0            0 
10216000    701.69294    78296.879    580.75866    -268.3621    884.60807    616.24597    1417.4949    -268.3621            0   -6.6885111            0            0            0            0            0            0 
10217000    622.40134    76959.579    599.04802   -289.67102    912.46631    622.79529    1321.3639   -289.67102            0    -6.804735            0            0            0            0            0            0 
10218000    798.46563    77333.992    603.58551   -258.47075    919.37778    660.90703    1561.4461   -258.47075            0   -6.7717899            0            0            0            0            0            0 
10219000    662.65498    77656.225    557.63187   -287.00512    849.38148    562.37636    1312.8572   -287.00512            0   -6.7436905            0            0            0            0            0            0 
10220000    672.47466     75069.76    565.59275   -295.82603    861.50745    565.68142    1301.9171   -295.82603            0   -6.9760386            0            0            0            0            0            0 
10221000     540.0344    82508.563    547.91439   -273.12006    834.57988    561.45982    1211.2847   -273.12006            0   -6.3470933            0            0            0            0            0            0 
10222000    628.90705    76244.764      575.884   -298.92729    877.18302    578.25573      1277.57   -298.92729            0   -6.8685312            0            0            0            0            0            0 
10223000    726.64248    73271.763    552.50023   -296.39483      841.565    545.17017    1321.6556   -296.39483            0   -7.1472218            0            0            0            0            0            0 
10224000    656.95715    80544.271    598.77436   -268.19698    912.04947    643.85249    1415.5509   -268.19698            0   -6.5018845            0            0            0            0            0            0 
10225000    717.85204    77180.306    620.35706   -277.03782    944.92411    667.88629    1475.8974   -277.03782            0   -6.7852742            0            0            0            0            0            0 
10226000    694.98657    76678.028    562.88028   -274.49098    857.37584    582.88485    1360.0678   -274.49098            0   -6.8297211            0            0            0            0            0            0 
10227000    664.99303    77143.773    560.32981   -283.32616    853.49097    570.16481    1318.3237   -283.32616            0   -6.7884875            0            0            0            0            0            0 
10228000    698.55663    77644.435    579.31407   -282.57136    882.40767    599.83632     1390.857   -282.57136            0   -6.7447145            0            0            0            0            0            0 
10229000    738.99437    77830.807    578.06757   -274.34891    880.50902    606.16011    1444.9797   -274.34891            0   -6.7285637            0            0            0            0            0            0 
10230000    634.14021    76957.475    595.68666   -295.27162    907.34631    612.07469    1323.7993   -295.27162            0   -6.8049211            0            0            0            0            0            0 
10231000    791.60874    71853.123    571.41834   -284.72668    870.38095    585.65426    1415.1843   -284.72668            0   -7.2883338            0            0            0            0            0            0 
10232000    658.23517    79459.451    599.17989   -272.36524    912.66717    640.30193    1403.0876   -272.36524            0   -6.5906515            0            0            0            0            0            0 
10233000    664.44088    80018.439    581.13285   -270.35919    885.17803    614.81884    1390.2126   -270.35919            0   -6.5446109            0            0            0            0            0            0 
10234000    649.09977    76150.098    568.68985   -288.83702    866.22494    577.38791    1298.2593   -288.83702            0   -6.8770699            0            0            0            0            0            0 
10235000    864.35803    74756.323    604.96716   -267.37194    921.48231    654.11036    1596.4718   -267.37194            0   -7.0052876            0            0            0            0            0            0 
10236000    569.20558     79514.76    574.34428   -287.14891    874.83773    587.68883    1247.7631   -287.14891            0   -6.5860671            0            0            0            0            0            0 
10237000    715.56476    76830.527    591.77957   -276.31942    901.39505    625.07562     1426.862   -276.31942            0   -6.8161649            0            0            0            0            0            0 
10238000     770.2275    78429.819    605.05036   -268.07867    921.60905    653.53037    1534.5308   -268.07867            0    -6.677174            0            0            0            0            0            0 
10239000    739.17321    77087.103    575.71413   -277.51118    876.92428     599.4131    1430.4185   -277.51118            0   -6.7934781            0            0            0            0            0            0 
10240000    720.26188    76631.594    584.13187   -273.87661    889.74611    615.86951    1420.8293   -273.87661            0   -6.8338595            0            0            0            0            0            0 
10241000    718.10838    76657.585     590.8073   -274.57034    899.91409    625.34375     1428.169   -274.57034            0   -6.8315425            0            0            0            0            0            0 
10242000    768.94927     76394.81     592.3845   -268.86729    902.31648    633.44918    1490.1663   -268.86729            0   -6.8550409            0            0            0            0            0            0 
10243000    722.49182    79146.657    578.05744   -258.20772    880.49358    622.28586    1456.2385   -258.20772            0   -6.6166983            0            0            0            0            0            0 
10244000    703.55296    76309.059     574.8377   -283.25857     875.5893    592.33072    1375.3073   -283.25857            0   -6.8627441            0            0            0            0            0            0 
10245000    625.48165    78240.959    603.65838   -284.57306    919.48878    634.91573    1348.6304   -284.57306            0   -6.6932915            0            0            0            0            0            0 
10246000    737.66649    77016.232    609.33738   -277.73776      928.139    650.40124    1478.9503   -277.73776            0   -6.7997295            0            0            0            0            0            0 
10247000    619.51721    76163.828    599.02252   -296.63395    912.42748    615.79353    1303.9355   -296.63395            0   -6.8758302            0            0            0            0            0            0 
10248000    682.05056    78143.736    585.16866    -275.0416    891.32536    616.28376    1393.5801    -275.0416            0    -6.701619            0            0            0            0            0            0 
10249000    645.53597    77434.195    568.08912   -284.99608    865.30991    580.31383    1309.3165   -284.99608            0   -6.7630269            0            0            0            0            0            0 
10250000    698.00727    70661.506    560.07409   -308.95105    853.10146     544.1504    1263.4648   -308.95105            0   -7.4112424            0            0            0            0            0            0 
10251000    541.38812    79948.866    539.17873    -275.9332    821.27377    545.34056    1176.5841    -275.9332            0   -6.5503061            0            0            0            0            0            0 
10252000    717.11159    75246.851    590.68973   -287.53375    899.73502    612.20126    1399.1582   -287.53375            0   -6.9596208            0            0            0            0            0            0 
10253000    775.31215    75648.744    582.47383   -276.48032    887.22061    610.74029    1466.1106   -276.48032            0    -6.922647            0            0            0            0            0            0 
10254000    708.90132    76436.234    587.12828   -283.31204    894.31023    610.99819    1401.2417   -283.31204            0   -6.8513258            0            0            0            0            0            0 
10255000    582.51108    82248.023    572.94422    -267.8964    872.70515    604.80876    1303.5326    -267.8964            0   -6.3671992            0            0            0            0            0            0 
10256000    747.11739    75538.721    561.76413   -279.87057    855.67572    575.80514    1398.8706   -279.87057            0   -6.9327298            0            0            0            0            0            0 
10257000    722.26899    75213.334    618.26762   -284.73929    941.74148     657.0022    1449.2658   -284.73929            0   -6.9627221            0            0            0            0            0            0 
10258000    677.19138    80462.498    580.13183   -259.72339    883.65329     623.9299    1418.5889   -259.72339            0   -6.5084922            0            0            0            0            0            0 
10259000    709.96765    74677.882    598.61469   -287.30019    911.80626    624.50607    1397.7321   -287.30019            0   -7.0126459            0            0            0            0            0            0 
10260000    630.94149    79915.696    574.82853   -277.93872    875.57533    597.63661    1332.9916   -277.93872            0   -6.5530249            0            0            0            0            0            0 
10261000    626.58699    78424.678    582.11264   -287.21687    886.67044    599.45357    1316.1083   -287.21687            0   -6.6776117            0            0            0            0            0            0 
10262000    604.94765    75807.845    574.49293   -300.99971    875.06415    574.06445    1242.8823   -300.99971            0   -6.9081181            0            0            0            0            0            0 
10263000    768.30001    74960.572    597.98704   -280.69703    910.85024    630.15321    1470.0765   -280.69703            0   -6.9861999            0            0            0            0            0            0 
10264000    677.36153    80248.275    577.98614   -264.71429    880.38498    615.67069    1408.4132   -264.71429            0   -6.5258667            0            0            0            0            0            0 
10265000    747.79815    77067.063    566.74653   -261.16261    863.26487    602.10227    1442.5856   -261.16261            0   -6.7952446            0            0            0            0            0            0 
10266000    664.21634    75470.964    572.86623   -286.49593    872.58637    586.09044    1317.1712   -286.49593            0    -6.938954            0            0            0            0            0            0 
10267000    588.33613     78591.13     555.0432   -289.59928    845.43843    555.83915     1230.173   -289.59928            0   -6.6634688            0            0            0            0            0            0 
10268000    628.70031    79199.977    624.87042   -279.80196    951.79884    671.99688    1398.1774   -279.80196            0   -6.6122436            0            0            0            0            0            0 
10269000    734.15032    76648.722    578.25999   -279.82583    880.80211    600.97628    1421.6411   -279.82583            0   -6.8323324            0            0            0            0            0            0 
10270000    639.60605    79904.926    568.85269   -269.49659    866.47297    596.97638    1342.3294   -269.49659            0   -6.5539081            0            0            0            0            0            0 
10271000    718.27735    76932.571    590.94443   -283.93525    900.12297    616.18772    1422.0824   -283.93525            0   -6.8071239            0            0            0            0            0            0 
10272000    802.38191    73858.345    594.38356   -289.28886    905.36143    616.07257    1480.3568   -289.28886            0   -7.0904587            0            0            0            0            0            0 
10273000    658.26211    81077.483    595.30018   -267.93986    906.75763    638.81777    1417.1679   -267.93986            0   -6.4591244            0            0            0            0            0            0 
10274000    615.75436    76476.018    547.11126   -303.52283    833.35655    529.83371    1216.5995   -303.52283            0   -6.8477617            0            0            0            0            0            0 
10275000    727.79837    77791.619     534.4955   -260.87774    814.14031    553.26257    1378.9578   -260.87774            0   -6.7319533            0            0            0            0            0            0 
10276000      582.353    84343.944    580.10187   -262.06443    883.60764    621.54321    1337.8781   -262.06443            0   -6.2089762            0            0            0            0            0            0 
10277000    778.21863    77075.206    551.38403   -264.71812    839.86481    575.14669    1449.9133   -264.71812            0   -6.7945267            0            0            0            0            0            0 
10278000    803.34571    75189.736     605.7552   -273.44969    922.68265    649.23296    1530.1539   -273.44969            0   -6.9649073            0            0            0            0            0            0 
10279000    610.27989    80797.543    602.16069   -275.09481     917.2075    642.11269    1361.2356   -275.09481            0   -6.4815033            0            0            0            0            0            0 
10280000     806.4334    76288.789    583.81183   -264.31305    889.25863    624.94558    1522.1783   -264.31305            0   -6.8645675            0            0            0            0            0            0 
10281000    690.89525    76277.725    545.57594    -275.1566    831.01797    555.86136    1324.4356    -275.1566            0   -6.8655633            0            0            0            0            0            0 
10282000    673.01125    78847.581    595.69545   -274.49102    907.35969    632.86867    1406.7718   -274.49102            0    -6.641796            0            0            0            0            0            0 
10283000    714.04927    75003.377    560.99147   -285.22529    854.49881    569.27352    1350.3344   -285.22529            0   -6.9822129            0            0            0            0            0            0 
10284000     723.1307    75719.114    572.84799   -282.62566    872.55858    589.93293    1388.4757   -282.62566            0   -6.9162133            0            0            0            0            0            0 
10285000     654.9658     82427.95    591.28555   -255.55557    900.64257      645.087    1432.4391   -255.55557            0   -6.3533006            0            0            0            0            0            0 
10286000     759.0506    75082.263    601.18345   -281.85077    915.71899    633.86822     1465.027   -281.85077            0   -6.9748769            0            0            0            0            0            0 
10287000    652.50572    76304.312    581.40231   -291.92113    885.58848    593.66735    1319.7888   -291.92113            0    -6.863171            0            0            0            0            0            0 
10288000    657.29266    75663.787    536.82814   -290.22456    817.69337    527.46881    1252.7773   -290.22456            0   -6.9212706            0            0            0            0            0            0 
10289000    608.00984    80163.413    570.28723   -275.49849    868.65806    593.15957    1303.9846   -275.49849            0    -6.532775            0            0            0            0            0            0 
10290000    787.11016    72862.396     627.6728   -297.29732     956.0674    658.77008    1495.1717   -297.29732            0   -7.1873775            0            0            0            0            0            0 
10291000    570.44685    77997.709    576.24527   -292.99865    877.73331    584.73465    1233.6274   -292.99865            0   -6.7141657            0            0            0            0            0            0 
10292000    629.24794     74908.12    572.70033   -305.36179    872.33366    566.97187    1254.3989   -305.36179            0   -6.9910918            0            0            0            0            0            0 
10293000    718.60625     74511.52    597.38486   -291.60314    909.93299    618.32985    1399.2206   -291.60314            0    -7.028303            0            0            0            0            0            0 
10294000    541.41422     82088.02    594.16455   -285.90561    905.02784    619.12223    1267.2869   -285.90561            0   -6.3796099            0            0            0            0            0            0 
10295000    620.30839    76616.612    548.09639   -290.33961     834.8571    544.51748    1237.6344   -290.33961            0   -6.8351958            0            0            0            0            0            0 
10296000    646.09848    75119.953    570.33245   -301.25266    868.72693    567.47427    1275.3058   -301.25266            0   -6.9713774            0            0            0            0            0            0 
10297000     706.8035    81503.087    576.58159    -246.1019    878.24558    632.14367    1472.2778    -246.1019            0   -6.4253952            0            0            0            0            0            0 
10298000    888.48338     72959.91     628.9228   -283.02391    957.97139    674.94748    1620.3342   -283.02391            0   -7.1777713            0            0            0            0            0            0 
10299000    694.55593    76484.097    550.42438   -268.83727    838.40307    569.56581    1344.3027   -268.83727            0   -6.8470384            0            0            0            0            0            0 
10300000    588.96488    77954.738    579.68932   -296.10901    882.97926    586.87024    1256.4585   -296.10901            0   -6.7178668            0            0            0            0            0            0 
10301000    742.38906    74152.581    590.14884    -281.8503    898.91113    617.06084    1419.9096    -281.8503            0   -7.0623239            0            0            0            0            0            0 
10302000    670.32179    78771.193     562.6761   -274.06714    857.06482    582.99768    1353.0614   -274.06714            0   -6.6482368            0            0            0            0            0            0 
10303000    548.89953    83301.596    561.96022   -260.08067    855.97441    595.89374    1262.7344   -260.08067            0   -6.2866688            0            0            0            0            0            0 
10304000    743.47051    74250.025    604.04308   -292.76624    920.07476    627.30852    1432.3833   -292.76624            0   -7.0530554            0            0            0            0            0            0 
10305000     704.5922    78132.278    629.58489   -283.42683    958.97988    675.55306    1478.4212   -283.42683            0   -6.7026017            0            0            0            0            0            0 
10306000    585.01977    77285.878    575.34418   -301.91984    876.36076    574.44092    1233.8373   -301.91984            0   -6.7760056            0            0            0            0            0            0 
10307000    619.95788    76410.169     547.1894   -292.98913    833.47557    540.48644    1231.3452   -292.98913            0   -6.8536629            0            0            0            0            0            0 
10308000    724.03678    78634.783    570.92848   -262.14311    869.63479    607.49168    1437.8226   -262.14311            0   -6.6597697            0            0            0            0            0            0 
10309000    626.14511    73962.358     582.0735   -314.12415    886.61082    572.48667    1247.8876   -314.12415            0   -7.0804874            0            0            0            0            0            0 
10310000    683.24718    75572.851    571.16189   -283.13944    869.99032    586.85088    1339.8935   -283.13944            0   -6.9295989            0            0            0            0            0            0 
10311000    589.98567     80864.11    600.45683    -277.5546     914.6122     637.0576    1332.8396    -277.5546            0   -6.4761678            0            0            0            0            0            0 
10312000    679.41228    75829.721    544.90585   -283.39404    829.99728    546.60324    1297.9644   -283.39404            0   -6.9061252            0            0            0            0            0            0 
10313000    658.55707    75623.486      540.183   -289.19197    822.80348     533.6115    1259.9282   -289.19197            0   -6.9249591            0            0            0            0            0            0 
10314000    692.47216    78966.568    607.86382   -273.98195    925.89448    651.91253    1449.3956   -273.98195            0   -6.6317881            0            0            0            0            0            0 
10315000    706.16742    76580.728     624.6968   -288.38431    951.53437    663.15006    1451.8341   -288.38431            0   -6.8383986            0            0            0            0            0            0 
10316000    753.52821    77364.625    592.14624   -275.71248    901.95356    626.24108    1476.4347   -275.71248            0   -6.7691085            0            0            0            0            0            0 
10317000    689.67765    79981.837    577.14454   -272.47689    879.10307    606.62617    1411.1028   -272.47689            0   -6.5476058            0            0            0            0            0            0 
10318000    753.11787    72389.122    557.25626     -297.949    848.80936    550.86037    1345.9428     -297.949            0    -7.234368            0            0            0            0            0            0 
10319000    645.50643    76876.434    594.38351   -281.54628    905.36136    623.81508    1347.5336   -281.54628            0   -6.8120946            0            0            0            0            0            0 
10320000    691.66777    76118.283    597.71755   -292.10565    910.43974    618.33409    1386.1594   -292.10565            0   -6.8799443            0            0            0            0            0            0 
10321000    743.65308    77503.396    585.96902   -274.70189    892.54445    617.84256    1458.3992   -274.70189            0   -6.7569884            0            0            0            0            0            0 
10322000    612.86398    80738.408    582.20813   -283.01423     886.8159    603.80167     1325.441   -283.01423            0   -6.4862505            0            0            0            0            0            0 
10323000    624.62591    75140.491    560.74816   -300.70459     854.1282    553.42361     1237.918   -300.70459            0   -6.9694719            0            0            0            0            0            0 
10324000    681.21585    77603.993     542.0033   -274.80197    825.57614    550.77418     1321.757   -274.80197            0   -6.7482293            0            0            0            0            0            0 
10325000    794.24762    75164.065    576.72506   -276.77071    878.46411    601.69339    1472.3403   -276.77071            0   -6.9672861            0            0            0            0            0            0 
10326000    723.18524    81397.688    616.67381   -257.98147    939.31381    681.33234    1539.8268   -257.98147            0   -6.4337152            0            0            0            0            0            0 
10327000    732.22457    76602.696    568.56664   -279.25121    866.03725    586.78604    1404.8066   -279.25121            0   -6.8364375            0            0            0            0            0            0 
10328000    649.27393    76403.506    588.46588   -287.16112    896.34766    609.18654    1332.6509   -287.16112            0   -6.8542606            0            0            0            0            0            0 
10329000     726.1292    74615.608    597.46933   -295.26993    910.06167    614.79174    1404.9598   -295.26993            0   -7.0184986            0            0            0            0            0            0 
10330000     615.4072    81383.237    599.56666   -271.72604     913.2563    641.53027    1371.9516   -271.72604            0   -6.4348577            0            0            0            0            0            0 
10331000    714.13792    78876.393     579.2301   -269.76838    882.27978     612.5114    1434.0066   -269.76838            0   -6.6393698            0            0            0            0            0            0 
10332000    602.88177     77351.58    524.72416   -283.43334    799.25666    515.82333    1195.9303   -283.43334            0   -6.7702501            0            0            0            0            0            0 
10333000    684.61221    77174.269    575.51916    -275.1142    876.62729    601.51309    1372.0493    -275.1142            0   -6.7858051            0            0            0            0            0            0 
10334000    641.94267    77866.413    562.20023   -291.99939    856.33998    564.34059    1293.3318   -291.99939            0    -6.725487            0            0            0            0            0            0 
10335000    719.64278    74521.292    622.04802   -295.00212    947.49977    652.49766    1434.6174   -295.00212            0   -7.0273814            0            0            0            0            0            0 
10336000    682.23137    78775.641    605.37415   -278.72386    922.10224    643.37838     1427.168   -278.72386            0   -6.6478614            0            0            0            0            0            0 
10337000     652.4699    78520.608      565.387   -267.98681    861.19406    593.20724    1340.3783   -267.98681            0   -6.6694535            0            0            0            0            0            0 
10338000    595.83173    75320.458    540.93479   -299.05453    823.94859    524.89405    1179.3983   -299.05453            0   -6.9528195            0            0            0            0            0            0 
10339000    685.38676    73791.342    550.71995   -301.22171    838.85329    537.63157    1275.2249   -301.22171            0   -7.0968969            0            0            0            0            0            0 
10340000    682.58099    80613.474    593.56409    -261.8963    904.11323    642.21693    1444.7034    -261.8963            0   -6.4963029            0            0            0            0            0            0 
10341000    684.04451    79951.165    638.26866   -267.30988    972.20695    704.89708    1502.4969   -267.30988            0   -6.5501177            0            0            0            0            0            0 
10342000    661.32515    76466.637    578.96373   -284.12118    881.87405    597.75287    1335.2544   -284.12118            0   -6.8486018            0            0            0            0            0            0 
10343000    735.79284    77249.523    571.91463   -267.86416     871.1369    603.27274    1432.2207   -267.86416            0   -6.7791945            0            0            0            0            0            0 
10344000    681.18369    76947.875    586.78819    -289.8339    893.79222    603.95832    1368.3866    -289.8339            0   -6.8057701            0            0            0            0            0            0 
10345000    634.45733    78547.153    584.10271   -280.59626     889.7017    609.10544    1335.8951   -280.59626            0   -6.6671996            0            0            0            0            0            0 
10346000    669.58407    81139.338    592.69588   -262.12108    902.79077    640.66969    1433.0113   -262.12108            0   -6.4542004            0            0            0            0            0            0 
10347000    794.84704    72699.853    587.10367    -287.9509    894.27275    606.32185    1449.0606    -287.9509            0   -7.2034471            0            0            0            0            0            0 
10348000    619.52186     78157.28    574.70874    -283.0173    875.39287    592.37557    1298.5337    -283.0173            0   -6.7004577            0            0            0            0            0            0 
10349000    663.38197    76406.235    552.55839   -280.31655    841.65359    561.33703    1300.5479   -280.31655            0   -6.8540158            0            0            0            0            0            0 
10350000    767.64909    75629.023    586.87818    -271.9194    893.92929    622.00989    1468.7051    -271.9194            0    -6.924452            0            0            0            0            0            0 
10351000    748.76541    78983.601     592.4338   -255.87487    902.39157     646.5167    1509.0157   -255.87487            0   -6.6303579            0            0            0            0            0            0 
10352000    763.61283      76147.3    580.03204   -275.84677    883.50129    607.65452    1455.6697   -275.84677            0   -6.8773225            0            0            0            0            0            0 
10353000    755.48612     73578.25    570.48875    -284.4043    868.96501     584.5607    1395.2451    -284.4043            0   -7.1174504            0            0            0            0            0            0 
[...]
14939000    758.89104    73834.802    573.62008   -293.85531    873.73463    579.87933    1397.0569   -293.85531            0   -7.0927196            0            0            0            0            0            0 
14940000    633.54643    79941.695    603.77799   -263.83272    919.67097    655.83825    1394.4695   -263.83272            0   -6.5508937            0            0            0            0            0            0 
14941000    670.74687    72734.858    576.19514   -308.91516    877.65694    568.74178    1280.2454   -308.91516            0   -7.1999803            0            0            0            0            0            0 
14942000     643.8449    77275.938    586.53547   -292.23322    893.40727    601.17406     1326.781   -292.23322            0   -6.7768772            0            0            0            0            0            0 
14943000    556.21448    78496.934    581.01859   -289.64364      885.004    595.36036    1232.1132   -289.64364            0    -6.671465            0            0            0            0            0            0 
14944000    748.63147    74837.496    587.24183   -282.16796     894.4832    612.31524    1429.3927   -282.16796            0   -6.9976893            0            0            0            0            0            0 
14945000    636.18173    81207.475    580.72258   -266.24529    884.55311    618.30782    1371.7555   -266.24529            0    -6.448785            0            0            0            0            0            0 
14946000    777.58227     76299.52     537.2344   -253.62973    818.31217    564.68245    1429.9373   -253.62973            0   -6.8636021            0            0            0            0            0            0 
14947000     570.5519    76887.952    562.40946   -295.10526    856.65868    561.55342    1201.3315   -295.10526            0   -6.8110742            0            0            0            0            0            0 
14948000    624.30989    77176.319     557.8158   -283.59912    849.66164    566.06252    1268.7467   -283.59912            0   -6.7856248            0            0            0            0            0            0 
14949000    647.76064    79988.297    556.93648   -272.83322    848.32228    575.48906    1331.1325   -272.83322            0    -6.547077            0            0            0            0            0            0 
14950000    609.51975    79779.074    569.85743   -278.17214    868.00337    589.83124     1299.005   -278.17214            0    -6.564247            0            0            0            0            0            0 
14951000    728.76405    76837.367    574.79348    -260.7979    875.52194    614.72403    1431.3728    -260.7979            0   -6.8155582            0            0            0            0            0            0 
14952000    590.41712    78882.396    598.39903   -292.55682    911.47778    618.92096    1298.1479   -292.55682            0   -6.6388646            0            0            0            0            0            0 
14953000    673.58188    76350.939    574.86795   -284.53132    875.63537    591.10404    1341.1376   -284.53132            0   -6.8589798            0            0            0            0            0            0 
14954000    726.81487    78886.504    578.44136   -264.44453    881.07837    616.63384    1452.8189   -264.44453            0   -6.6385189            0            0            0            0            0            0 
14955000    595.03202    79469.773    590.31328   -282.51712    899.16161    616.64449    1306.2777   -282.51712            0   -6.5897954            0            0            0            0            0            0 
14956000    801.94488    72663.597    595.93142   -298.17344    907.71912    609.54568    1459.3859   -298.17344            0   -7.2070413            0            0            0            0            0            0 
14957000     703.5058    78490.391    587.43382   -267.86615    894.77564    626.90948    1432.2139   -267.86615            0   -6.6720211            0            0            0            0            0            0 
14958000    610.33222    77905.367    594.84252   -298.42068    906.06052    607.63984    1301.0809   -298.42068            0   -6.7221241            0            0            0            0            0            0 
14959000    653.91386    76097.539    541.88257   -290.09856    825.39224    535.29368    1261.0103   -290.09856            0   -6.8818197            0            0            0            0            0            0 
14960000    649.92198    77521.996    582.29762    -273.5567     886.9522     613.3955    1348.1835    -273.5567            0   -6.7553672            0            0            0            0            0            0 
14961000    814.73565    75690.421    605.83507    -268.9016     922.8043     653.9027    1553.2626    -268.9016            0   -6.9188351            0            0            0            0            0            0 
14962000    683.86055    75832.613    595.27483    -287.3412      906.719     619.3778    1375.6871    -287.3412            0   -6.9058618            0            0            0            0            0            0 
14963000    663.88993     79464.74     608.2627    -272.3297    926.50205    654.17235    1423.5622    -272.3297            0   -6.5902128            0            0            0            0            0            0 
14964000    656.13029    78628.145    582.66834   -282.38313    887.51688    605.13375    1357.5255   -282.38313            0    -6.660332            0            0            0            0            0            0 
14965000    674.12474    75980.076    587.45553   -297.61841    894.80871     597.1903    1344.1822   -297.61841            0   -6.8924588            0            0            0            0            0            0 
14966000    599.59179     79238.77    583.98336   -284.41631    889.51991     605.1036    1298.0016   -284.41631            0   -6.6090065            0            0            0            0            0            0 
14967000    704.13201    77468.187    603.50638   -278.30849    919.25726    640.94877    1436.4729   -278.30849            0   -6.7600594            0            0            0            0            0            0 
14968000    594.78838    78083.552    605.20224   -301.57466    921.84038    620.26572     1297.592   -301.57466            0   -6.7067843            0            0            0            0            0            0 
14969000    679.77758    74800.878    545.77516   -288.89165    831.32142    542.42977    1283.9951   -288.89165            0    -7.001115            0            0            0            0            0            0 
14970000      742.269    75098.478    573.17053   -287.69481    873.04987    585.35506    1398.3135   -287.69481            0    -6.973371            0            0            0            0            0            0 
14971000    755.33876    78128.485     608.6594   -262.94064    927.10631    664.16567    1524.8166   -262.94064            0   -6.7029272            0            0            0            0            0            0 
14972000    658.26347    79426.388    608.33226   -278.65731      926.608    647.95069    1410.4518   -278.65731            0    -6.593395            0            0            0            0            0            0 
14973000      666.625    77350.471    552.45889   -277.33896    841.50204    564.16308    1316.1676   -277.33896            0   -6.7703472            0            0            0            0            0            0 
14974000    682.50868    69747.738    574.12887   -324.08526    874.50962    550.42436    1244.6717   -324.08526            0   -7.5083373            0            0            0            0            0            0 
14975000    691.78443    78869.554    631.18364   -283.77182     961.4151    677.64328    1473.3555   -283.77182            0   -6.6399456            0            0            0            0            0            0 
14976000    733.00519    75661.877    586.31965   -283.98541    893.07853    609.09312    1417.9283   -283.98541            0   -6.9214454            0            0            0            0            0            0 
14977000    762.43945    76660.263    590.58946    -277.2706    899.58229    622.31168    1474.7276    -277.2706            0   -6.8313038            0            0            0            0            0            0 
14978000    726.22088    76995.102    586.35043    -277.6578    893.12541    615.46761    1430.9371    -277.6578            0   -6.8015956            0            0            0            0            0            0 
14979000    802.03153    75617.115     551.9886   -266.52039    840.78569     574.2653    1458.7441   -266.52039            0   -6.9255425            0            0            0            0            0            0 
14980000    633.18608    84335.407    572.60772   -251.85987    872.19261    620.33274     1399.117   -251.85987            0   -6.2096047            0            0            0            0            0            0 
14981000    759.67765    76955.358    599.23667   -273.18937    912.75366    639.56429    1492.1619   -273.18937            0   -6.8051083            0            0            0            0            0            0 
14982000    740.03211    74477.781    571.38485   -277.82839    870.32994    592.50155    1396.3111   -277.82839            0    -7.031487            0            0            0            0            0            0 
14983000    616.23717    78884.878    581.25006   -281.38615    885.35657    603.97042    1312.9236   -281.38615            0   -6.6386557            0            0            0            0            0            0 
14984000    751.75027    76993.923    595.43879    -274.0677    906.96875    632.90105    1477.0244    -274.0677            0   -6.8016998            0            0            0            0            0            0 
14985000    782.35882    75359.151    609.72329   -284.87518    928.72681    643.85163    1503.6921   -284.87518            0   -6.9492496            0            0            0            0            0            0 
14986000      662.659    78767.967    568.47854    -262.8281    865.90306    603.07497    1364.3045    -262.8281            0   -6.6485091            0            0            0            0            0            0 
14987000    671.22036    74973.505    583.83365   -303.32805    889.29187    585.96382     1319.884   -303.32805            0   -6.9849948            0            0            0            0            0            0 
14988000    702.07229      78084.7    580.65421   -271.86191    884.44896    612.58706    1412.0966   -271.86191            0   -6.7066857            0            0            0            0            0            0 
14989000    692.06207    76727.412    573.78949   -284.48489    873.99267    589.50778    1363.9187   -284.48489            0   -6.8253252            0            0            0            0            0            0 
14990000    709.03611    80196.455    585.76743   -255.58904     892.2374    636.64836     1465.925   -255.58904            0   -6.5300835            0            0            0            0            0            0 
14991000    771.37359    76665.449    619.11535   -274.54321    943.03275    668.48954    1530.9523   -274.54321            0   -6.8308417            0            0            0            0            0            0 
14992000    721.89642    77495.951    558.67936   -272.42433    850.97702    578.55269    1394.4393   -272.42433            0   -6.7576375            0            0            0            0            0            0 
14993000    665.52073    76258.431     583.9541   -284.19763    889.47535    605.27772    1345.4373   -284.19763            0   -6.8673003            0            0            0            0            0            0 
14994000     651.4807    77820.079    575.55632   -276.54312     876.6839    600.14078    1339.5232   -276.54312            0   -6.7294913            0            0            0            0            0            0 
14995000    594.85202    78899.011    605.75628   -297.26205     922.6843    625.42224    1309.8954   -297.26205            0   -6.6374666            0            0            0            0            0            0 
14996000    702.27979    73767.593    584.57139   -305.14588    890.41559    585.26971    1340.7996   -305.14588            0   -7.0991817            0            0            0            0            0            0 
14997000    688.38553    78805.516    538.19081   -261.42148    819.76898     558.3475    1349.5074   -261.42148            0   -6.6453412            0            0            0            0            0            0 
14998000    590.03862    80348.178    566.66262   -269.05898    863.13707    594.07809    1285.4828   -269.05898            0   -6.5177526            0            0            0            0            0            0 
14999000    647.70482    75395.599    594.78886   -297.09183    905.97878    608.88695    1321.0821   -297.09183            0   -6.9458901            0            0            0            0            0            0 
15000000    703.33501    77481.442    588.29244   -281.02058    896.08348    615.06291    1409.8226   -281.02058            0   -6.7589029            0            0            0            0            0            0 
Loop time of 1215.32 on 8 procs for 5000000 steps with 512 atoms

Pair  time (%) = 613.873 (50.5112)
Bond  time (%) = 0.454933 (0.0374332)
Neigh time (%) = 30.5396 (2.51288)
Comm  time (%) = 409.915 (33.729)
Outpt time (%) = 0.268062 (0.0220569)
Other time (%) = 160.27 (13.1875)

Nlocal:    64 ave 71 max 53 min
Histogram: 1 0 0 0 0 3 0 2 1 1
Nghost:    1035 ave 1079 max 991 min
Histogram: 1 1 0 1 0 2 1 1 0 1
Neighs:    4276.88 ave 4956 max 3424 min
Histogram: 1 0 0 0 2 2 1 0 1 1

Total # of neighbors = 34215
Ave neighs/atom = 66.8262
Ave special neighs/atom = 0
Neighbor list builds = 111272
Dangerous builds = 0

Averages
Group Pressure(MPa) Volume(m3) Temperature(K) PE(J) KE(J) ET(J) ET^2(J) H(J) H^2(J^2) V^2(m6) V*H(m3*J) Hconf(J) Uext*Hconf(J^2) V*Hconf(m3*J) Uext(J)
Block1 69.861692625395107825 7.7291965456341791546e-26 579.91831218236507084 -1.9394799591900437779e-18 6.1370937832458108438e-18 4.197613824055781703e-18 1.767955290101176943e-35 9.5893551242882723366e-18 9.2309128723257257924e-35 5.9800063418647606731e-51 7.411494366359639334e-43 3.4522613410424561002e-18 -6.6678961846449267507e-36 2.6676881526604138761e-43 -1.9394799591900437779e-18
Block2 70.314454226744530274 7.722325622684491322e-26 579.98024812667233618 -1.9398530632558780765e-18 6.13774923193710858e-18 4.1978961686812254962e-18 1.7677449174635815329e-35 9.6201336783133008453e-18 9.2908876436090940065e-35 5.9691987925950459418e-51 7.4285536644421330531e-43 3.4823844463762007394e-18 -6.7256237957124967305e-36 2.6887529974618737699e-43 -1.9398530632558780765e-18
Block3 69.443946690487237561 7.729815458721525232e-26 579.23199770615110538 -1.9448378451538394278e-18 6.1298307321973533367e-18 4.1849928870435254645e-18 1.7577772119039303827e-35 9.5450670147332077761e-18 9.1496850734224816993e-35 5.9808316041763520138e-51 7.3777070928804681204e-43 3.4152362825358367209e-18 -6.6120424748669784096e-36 2.6393528766728946466e-43 -1.9448378451538394278e-18
Block4 70.027844752441268383 7.7154546407209371327e-26 580.7739396907434184 -1.9467322476819109114e-18 6.1461486210602918321e-18 4.1994163733783736022e-18 1.7686495111726707498e-35 9.5938977769037623857e-18 9.2387115046772741591e-35 5.9585841844468049408e-51 7.4007098935072935926e-43 3.4477491558434697832e-18 -6.682744717415340919e-36 2.6589121833864916331e-43 -1.9467322476819109114e-18
Block5 69.947440582445565838 7.7221750948946113505e-26 580.2290416243170057 -1.9441058619954699963e-18 6.1403821355644442593e-18 4.1962762735689800408e-18 1.7663765770182280882e-35 9.5898361091280784192e-18 9.2303623061572877163e-35 5.9690906080714887868e-51 7.4051667390051667641e-43 3.4494539735636152858e-18 -6.6775703126593124371e-36 2.6631759447871328935e-43 -1.9441058619954699963e-18
Ave_blocks 69.91907577550273345 7.7237934725311486088e-26 580.02670786604971909 -1.9430017954554282839e-18 6.1382409008010017704e-18 4.1952391053455769532e-18 1.7657007015319173255e-35 9.5876579406733234282e-18 9.2281118800383741714e-35 5.9715423062308911834e-51 7.4047263512389408101e-43 3.44941703987231588e-18 -6.6731754970598105148e-36 2.6635764309937620011e-43 -1.9430017954554282839e-18
Stdev_blocks 0.28213466489159327866 5.2871043481200450547e-29 0.49895224609980404207 2.8574170286678945689e-21 5.2802552762211066889e-21 5.2193783184781893727e-21 4.0297881395209526994e-38 2.4146307849938059495e-20 4.5203589472185897466e-37 8.2139729209241423573e-54 1.6491895461066138932e-45 2.1288716795830404003e-20 3.6405565387536390839e-38 1.5871118001369049531e-45 2.8574170286678945689e-21






Properties
Group rho(kg/m3) Cp(J/K) Cp_conf(J/K) Cp_id(J/K) Cp2(J/K) kT(1/Pa) aP(1/K) aP2(1/K) Cv(J/K) uJT(K/Pa) sos(m/s) Cv2(J/K) uJT2(K/Pa) sos2(m/s) CvNVT(J/K)
Block1 176.46380292767105402 7.611075360464837441e-20 -2.0558182803844073416e-21 4.3619729009754440455e-20 4.1563910729370031609e-20 9.6282322094115764627e-09 -8.5455418804839116688e-05 -0.0001762393184570866197 7.6076757134087487953e-20 -1.0658459164614882594e-06 767.35428029089848678 4.1419313414820947595e-20 -2.0496518143197570048e-06 768.52085775386046862 1.2834070729227103113e-20
Block2 176.6208112244674453 7.7926342613881231688e-20 -1.3688308989531919241e-21 4.3622853359590586998e-20 4.2254022460637395074e-20 9.3270078145778495318e-09 -0.0001190096750599818707 -0.00012761192537124910499 7.7858330932445424619e-20 -1.0593780539108057192e-06 779.46657075934967907 4.2175823407308293078e-20 -1.962860093030131776e-06 779.84831197473033626 1.1867941735022288749e-20
Block3 176.44967377314492296 8.3879261931787956288e-20 -1.4264061474483398716e-21 4.3585102437371570161e-20 4.2158696289923230289e-20 9.4261162767153672083e-09 -0.00012667204405957967054 -0.00015688499537181094592 8.3803045180134843338e-20 -9.8915645669135634481e-07 775.74783808139238772 4.2041786280252226123e-20 -2.0001200811994394349e-06 776.47268011785695307 1.3731381822594216766e-20
Block4 176.77810051781727907 7.3920431643418421887e-20 -2.5991775414946344786e-21 4.3662883661703731689e-20 4.1063706120209095706e-20 9.3106964389337327337e-09 -0.0003947712958188196136 -0.00032926085496060096113 7.3170403413281933574e-20 -1.2830551637255893131e-06 783.4462518271055842 4.054195104923131799e-20 -2.2381932841259730767e-06 784.46113846883986298 1.1036777638363039477e-20
Block5 176.62425408092093448 7.286014746591964891e-20 -1.7621897166978899811e-21 4.3635402875966746143e-20 4.1873213159268853905e-20 9.5241191061131291249e-09 -7.5950755378648753739e-05 -0.00015401233213467333612 7.2833009425547459095e-20 -1.1065695895101700946e-06 771.157907136021322 4.1761623157735704404e-20 -2.0089806286985122668e-06 772.04369316121790234 1.1839323473906997483e-20
Ave_blocks 176.58732850480433285 7.6939387451931117007e-20 -1.8424845169956924185e-21 4.3625194268877423515e-20 4.1782709751881721317e-20 9.4432343691503313431e-09 -0.0001603718378243738159 -0.00018880188525908418815 7.6748309217099420086e-20 -1.1008010360598819039e-06 775.43456961895356017 4.1588099461869694227e-20 -2.0519611802747624577e-06 776.26933629530117287 1.2261899079822728817e-20
Stdev_blocks 0.12090156739341884062 3.8878494152412387933e-21 4.5210880158911902871e-22 2.5169067751445308271e-23 4.3278901270300898177e-22 1.2011201904669506451e-10 0.00011876784035794041706 7.1916273974690394762e-05 3.9895717142470406933e-21 9.8642870192155800176e-08 5.7292781351254875588 5.8382820575698695261e-22 9.7120091424250306594e-08 5.6187368345261088365 9.2967252366054837686e-22






