LAMMPS (28 Oct 2012)
Scanning data file ...
Reading data file ...
  orthogonal box = (0 0 0) to (100 100 100)
  2 by 2 by 2 MPI processor grid
  512 atoms
Finding 1-2 1-3 1-4 neighbors ...
  0 = max # of 1-2 neighbors
  0 = max # of 1-3 neighbors
  0 = max # of 1-4 neighbors
  1 = max # of special neighbors
WARNING: Resetting reneighboring criteria during minimization (min.cpp:173)
Setting up minimization ...
Memory usage per processor = 4.05499 Mbytes
Step Temp E_pair E_mol TotEng Press 
       0       520.15    1409.7233            0    2202.0127    448.73381 
     701       520.15   -217.27527            0    575.01406    35.988915 
Loop time of 0.0538512 on 8 procs for 701 steps with 512 atoms

Minimization stats:
  Stopping criterion = energy tolerance
  Energy initial, next-to-last, final = 
         1409.72334813     -217.256630745     -217.275265106
  Force two-norm initial, final = 5034.49 0.337455
  Force max component initial, final = 2457.89 0.147661
  Final line search alpha, max atom move = 0.254892 0.0376377
  Iterations, force evaluations = 701 710

Pair  time (%) = 0.00893703 (16.5958)
Bond  time (%) = 6.20186e-05 (0.115167)
Neigh time (%) = 0.00315961 (5.8673)
Comm  time (%) = 0.0217324 (40.3564)
Outpt time (%) = 0 (0)
Other time (%) = 0.0199601 (37.0653)

Nlocal:    64 ave 74 max 52 min
Histogram: 1 0 0 1 1 2 0 2 0 1
Nghost:    235.125 ave 266 max 224 min
Histogram: 4 0 2 0 0 1 0 0 0 1
Neighs:    316.25 ave 371 max 226 min
Histogram: 1 0 0 1 1 1 0 1 0 3

Total # of neighbors = 2530
Ave neighs/atom = 4.94141
Ave special neighs/atom = 0
Neighbor list builds = 60
Dangerous builds = 0
Setting up run ...
Memory usage per processor = 3.36354 Mbytes
Step Temp E_pair E_mol TotEng Press Volume 
     701       520.15   -217.27527            0    575.01406    35.988915      1000000 
 5000701    509.48311      -313.84            0    462.20158    629.64014    72722.783 
Loop time of 1267.84 on 8 procs for 5000000 steps with 512 atoms

Pair  time (%) = 669.353 (52.7946)
Bond  time (%) = 0.462852 (0.036507)
Neigh time (%) = 34.6379 (2.73203)
Comm  time (%) = 409.442 (32.2944)
Outpt time (%) = 5.16176e-05 (4.07129e-06)
Other time (%) = 153.948 (12.1425)

Nlocal:    64 ave 73 max 54 min
Histogram: 1 1 0 0 2 1 1 0 0 2
Nghost:    1119.12 ave 1154 max 1084 min
Histogram: 2 0 1 0 1 1 0 0 1 2
Neighs:    4563.75 ave 5427 max 3587 min
Histogram: 1 0 1 0 2 2 0 0 0 2

Total # of neighbors = 36510
Ave neighs/atom = 71.3086
Ave special neighs/atom = 0
Neighbor list builds = 105528
Dangerous builds = 8
Setting up run ...
Memory usage per processor = 3.95437 Mbytes
Step Press Volume Temp PotEng KinEng TotEng Enthalpy E_vdwl E_coul E_tail E_long E_bond E_angle E_dihed E_impro E_mol 
10000000    629.64014    72722.783    509.48311      -313.84    776.04158    462.20158    1129.9898      -313.84            0   -7.2011758            0            0            0            0            0            0 
10001000    645.87913     71500.09    515.42854   -312.75858    785.09763    472.33905     1145.833   -312.75858            0   -7.3243201            0            0            0            0            0            0 
10002000    797.08631    67182.096    543.84144   -321.92588    828.37598    506.45009    1287.4209   -321.92588            0    -7.795076            0            0            0            0            0            0 
10003000    698.27052    72481.777    505.29359   -299.51391    769.66013    470.14621    1208.2687   -299.51391            0   -7.2251201            0            0            0            0            0            0 
10004000    699.91058    69010.743    518.56559   -324.87495    789.87596    465.00102    1169.4266   -324.87495            0    -7.588522            0            0            0            0            0            0 
10005000    684.35791    69486.531    503.60664   -322.14548    767.09058     444.9451    1138.4664   -322.14548            0    -7.536562            0            0            0            0            0            0 
10006000    710.83335    73247.945    539.91054   -292.74083    822.38847    529.64764    1288.9926   -292.74083            0   -7.1495459            0            0            0            0            0            0 
10007000     829.5403    67031.632    522.80339   -316.05545    796.33096    480.27551    1291.2238   -316.05545            0   -7.8125734            0            0            0            0            0            0 
10008000    604.51856    67320.103    496.28553   -349.08992    755.93911     406.8492    1000.3623   -349.08992            0   -7.7790961            0            0            0            0            0            0 
10009000    665.31117    73672.168    503.83612   -299.51214    767.44012    467.92798    1182.7603   -299.51214            0    -7.108377            0            0            0            0            0            0 
10010000     712.0063    69539.284    558.96619   -324.47264    851.41391    526.94127     1249.029   -324.47264            0   -7.5308446            0            0            0            0            0            0 
10011000    607.43789     71147.62    515.60688   -317.84884    785.36927    467.52043    1097.8071   -317.84884            0   -7.3606053            0            0            0            0            0            0 
10012000    672.51089     69238.83    515.21802   -321.90053    784.77697    462.87643    1141.9627   -321.90053            0   -7.5635238            0            0            0            0            0            0 
10013000    696.07513     71700.18    557.98201   -310.74616    849.91482    539.16866     1267.036   -310.74616            0   -7.3038805            0            0            0            0            0            0 
10014000    703.31304    69167.539    523.26719   -319.69653    797.03741    477.34088    1186.7992   -319.69653            0   -7.5713197            0            0            0            0            0            0 
10015000     680.9667    72477.626    507.13911   -290.58939    772.47121    481.88182    1201.6717   -290.58939            0   -7.2255339            0            0            0            0            0            0 
10016000    673.53474    65379.285    490.64727   -357.47376    747.35095    389.87719    1032.0857   -357.47376            0   -8.0100226            0            0            0            0            0            0 
10017000    735.30763    71369.373    528.04916   -298.69989    804.32128     505.6214    1270.9657   -298.69989            0    -7.337735            0            0            0            0            0            0 
10018000    643.63172     72917.88    519.04822   -297.60066    790.61109    493.01043    1177.4693   -297.60066            0   -7.1819085            0            0            0            0            0            0 
10019000    655.16599    70976.653    510.58225    -309.9038    777.71579      467.812    1145.9885    -309.9038            0   -7.3783353            0            0            0            0            0            0 
10020000    666.61184     73828.68    506.03049   -285.04717    770.78257     485.7354    1203.4868   -285.04717            0   -7.0933077            0            0            0            0            0            0 
10021000    792.96353     67393.85    519.26567   -323.80723    790.94231    467.13509    1246.5153   -323.80723            0   -7.7705836            0            0            0            0            0            0 
10022000    742.52166     68533.25    531.75838   -323.43975    809.97114     486.5314    1228.6723   -323.43975            0   -7.6413938            0            0            0            0            0            0 
10023000    668.46444    70847.248    515.67608    -305.8149    785.47468    479.65978    1170.3403    -305.8149            0   -7.3918121            0            0            0            0            0            0 
10024000    648.06287    65870.024    508.74093   -353.87132     774.9111    421.03978    1043.5993   -353.87132            0    -7.950347            0            0            0            0            0            0 
10025000    699.38871      68772.7     500.9345   -329.44652    763.02039    433.57387    1135.0463   -329.44652            0   -7.6147882            0            0            0            0            0            0 
10026000    728.69665    72579.505    518.80444   -301.69743    790.23977    488.54235     1259.866   -301.69743            0   -7.2153915            0            0            0            0            0            0 
10027000     814.2693    69624.695    557.50568   -317.07684    849.18926    532.11243    1358.9253   -317.07684            0   -7.5216064            0            0            0            0            0            0 
10028000    683.59749    69664.453    517.96569    -318.1944    788.96219     470.7678    1165.2923    -318.1944            0   -7.5173137            0            0            0            0            0            0 
10029000    699.98624    69889.409     512.1539   -312.29035    780.10972    467.81937    1181.2911   -312.29035            0   -7.4931173            0            0            0            0            0            0 
10030000    756.31153    69168.022    543.48675   -315.23942    827.83571     512.5963    1275.5215   -315.23942            0   -7.5712668            0            0            0            0            0            0 
10031000     693.1876    70805.665    536.13256   -310.67337    816.63386     505.9605    1221.7654   -310.67337            0   -7.3961532            0            0            0            0            0            0 
10032000    760.33656    68005.271    499.44027   -313.76281    760.74439    446.98158    1201.0736   -313.76281            0     -7.70072            0            0            0            0            0            0 
10033000    682.49395    73837.287    536.20996   -290.35849    816.75176    526.39326    1261.3308   -290.35849            0   -7.0924808            0            0            0            0            0            0 
10034000    736.80345    66681.205     490.1103   -326.54049    746.53303    419.99254    1136.5169   -326.54049            0   -7.8536305            0            0            0            0            0            0 
10035000    654.26088    68767.377    502.02702   -323.73559    764.68451    440.94891    1097.1082   -323.73559            0   -7.6153776            0            0            0            0            0            0 
10036000    646.85506    68885.846    516.34647   -328.15135    786.49581    458.34447    1108.1941   -328.15135            0   -7.6022808            0            0            0            0            0            0 
10037000    774.95014    67937.624    511.32526   -317.87047    778.84754    460.97707    1228.7981   -317.87047            0   -7.7083877            0            0            0            0            0            0 
10038000    696.77622    72055.904    540.32792   -308.62487    823.02421    514.39934    1246.6146   -308.62487            0   -7.2678229            0            0            0            0            0            0 
10039000    746.24336    70304.244    515.76791   -307.08107    785.61455    478.53348    1243.6682   -307.08107            0   -7.4489037            0            0            0            0            0            0 
10040000    722.43969    69606.369    500.40234   -310.60092    762.20981     451.6089    1184.9845   -310.60092            0   -7.5235866            0            0            0            0            0            0 
10041000    664.99291     71324.55    516.23151   -321.13257     786.3207    465.18814    1156.9107   -321.13257            0   -7.3423463            0            0            0            0            0            0 
10042000    653.26492    71082.197    537.03329   -311.30714    818.00585    506.69871    1183.9129   -311.30714            0   -7.3673798            0            0            0            0            0            0 
10043000    763.79127    68609.983    513.71898    -312.9844    782.49364    469.50923    1233.7635    -312.9844            0   -7.6328476            0            0            0            0            0            0 
10044000    750.49887    71914.132    499.77529   -302.46274    761.25469    458.79194    1245.9105   -302.46274            0   -7.2821507            0            0            0            0            0            0 
10045000    545.20547    71339.525    506.11882   -328.54798    770.91711    442.36913    1009.6084   -328.54798            0   -7.3408051            0            0            0            0            0            0 
10046000    717.75783    67077.597    484.75651   -328.12242    738.37818    410.25577    1112.4081   -328.12242            0   -7.8072199            0            0            0            0            0            0 
10047000    713.25315    71510.282    525.54721   -304.41173    800.51032    496.09859    1239.9532   -304.41173            0   -7.3232761            0            0            0            0            0            0 
10048000    768.39485    69081.535    540.17083   -303.76757    822.78494    519.01737    1293.1624   -303.76757            0   -7.5807456            0            0            0            0            0            0 
10049000    700.22203    70536.921      547.924   -316.88203    834.59452    517.71249    1238.0369   -316.88203            0   -7.4243324            0            0            0            0            0            0 
10050000    715.63209    69067.724     509.0231   -315.37977     775.3409    459.96112    1180.8044   -315.37977            0   -7.5822615            0            0            0            0            0            0 
10051000    784.28036    68589.935     526.3575   -309.77953    801.74456    491.96503    1276.4915   -309.77953            0   -7.6350786            0            0            0            0            0            0 
10052000    757.15725    70046.709    521.26286   -303.58868    793.98443    490.39575    1263.8769   -303.58868            0   -7.4762905            0            0            0            0            0            0 
10053000    726.31543    74644.439    516.64144   -274.19862    786.94511    512.74649    1303.4226   -274.19862            0   -7.0157878            0            0            0            0            0            0 
10054000     754.8029    67081.459    539.37151   -324.64694    821.56741    496.92047    1235.3549   -324.64694            0   -7.8067704            0            0            0            0            0            0 
10055000    694.12188    70388.798    510.57468   -308.71859    777.70426    468.98567    1181.5354   -308.71859            0   -7.4399557            0            0            0            0            0            0 
10056000    722.01431    69271.364     496.7805   -313.14893    756.69305    443.54412    1172.9604   -313.14893            0   -7.5599716            0            0            0            0            0            0 
10057000    639.34742    72351.951    504.70822   -310.30628     768.7685    458.46223    1133.0882   -310.30628            0   -7.2380847            0            0            0            0            0            0 
10058000    666.62577    70885.248     510.1916   -313.36627    777.12075    463.75447    1152.9046   -313.36627            0   -7.3878495            0            0            0            0            0            0 
10059000    572.05985    70214.066    497.45342   -328.77623    757.71804    428.94181    1014.7312   -328.77623            0   -7.4584705            0            0            0            0            0            0 
10060000     558.5457    72982.763    480.63745   -313.78281    732.10405    418.32124    1012.8254   -313.78281            0   -7.1755237            0            0            0            0            0            0 
10061000    642.63021    71876.954    514.32321   -307.57636      783.414    475.83764    1149.4758   -307.57636            0   -7.2859173            0            0            0            0            0            0 
10062000    622.98073    70334.117    507.52379   -332.02858    773.05715    441.02857    1080.0517   -332.02858            0   -7.4457399            0            0            0            0            0            0 
10063000    808.37088    70122.314    495.83021   -295.56613    755.24557    459.67945    1286.3696   -295.56613            0   -7.4682297            0            0            0            0            0            0 
10064000    765.96461    66930.573     521.6985   -330.59185    794.64799    464.05614    1211.7247   -330.59185            0   -7.8243696            0            0            0            0            0            0 
10065000    746.94937    70586.763    515.42789   -302.57229    785.09664    482.52435    1251.4606   -302.57229            0     -7.41909            0            0            0            0            0            0 
10066000     620.7169    70044.265    538.40482   -333.43996    820.09496      486.655    1120.7321   -333.43996            0   -7.4765513            0            0            0            0            0            0 
10067000    791.16666     69415.44    499.35192    -300.9565    760.60982    459.65331    1260.5933    -300.9565            0   -7.5442804            0            0            0            0            0            0 
10068000    740.52851    71401.261      498.585   -296.21854    759.44164     463.2231    1234.3459   -296.21854            0    -7.334458            0            0            0            0            0            0 
10069000     648.9293    70059.146    507.80632   -326.03166    773.48751    447.45585    1110.4934   -326.03166            0   -7.4749633            0            0            0            0            0            0 
10070000    776.75238    65633.124    554.94835   -337.01737    845.29397     508.2766    1251.7776   -337.01737            0   -7.9790434            0            0            0            0            0            0 
10071000    628.34138    70722.812    508.09876   -320.36701    773.93295    453.56594    1101.6496   -320.36701            0   -7.4048179            0            0            0            0            0            0 
10072000    615.24557    73272.693    517.06418   -303.36602    787.58902      484.223    1141.6788   -303.36602            0   -7.1471311            0            0            0            0            0            0 
10073000    711.58882    67518.446    543.15193   -326.12868    827.32573    501.19705    1201.8895   -326.12868            0   -7.7562441            0            0            0            0            0            0 
10074000    605.25306    69705.484    518.48462   -335.66296    789.75262    454.08966    1069.3796   -335.66296            0   -7.5128888            0            0            0            0            0            0 
10075000    709.84508     70533.34     522.8021    -309.6506    796.32899    486.67839    1216.8651    -309.6506            0   -7.4247093            0            0            0            0            0            0 
10076000    622.69975    69663.861    532.57035   -335.42965    811.20793    475.77828    1108.4263   -335.42965            0   -7.5173776            0            0            0            0            0            0 
10077000    744.23169    72362.935    549.55754   -301.38981    837.08271     535.6929    1321.1098   -301.38981            0   -7.2369859            0            0            0            0            0            0 
10078000     708.6999    69623.495    551.37609   -317.77782    839.85271    522.07489    1241.6797   -317.77782            0   -7.5217359            0            0            0            0            0            0 
10079000    679.16189    73917.723    505.15639   -291.34119    769.45115    478.10996    1210.2561   -291.34119            0   -7.0847629            0            0            0            0            0            0 
10080000    565.30694    74573.521     506.3811   -309.58349    771.31662    461.73312    1076.5487   -309.58349            0   -7.0224597            0            0            0            0            0            0 
10081000    704.51916    67276.203    517.91458    -329.1006    788.88434    459.78374    1151.0258    -329.1006            0   -7.7841722            0            0            0            0            0            0 
10082000    659.98228    71504.665     541.7003   -323.41332    825.11461     501.7013    1189.9455   -323.41332            0   -7.3238515            0            0            0            0            0            0 
10083000    700.17681    69728.317    503.18684   -312.83256    766.45114    453.61858    1165.6396   -312.83256            0   -7.5104286            0            0            0            0            0            0 
10084000    615.91767     73584.96     516.5172    -302.4456    786.75586    484.31027    1145.2892    -302.4456            0   -7.1168014            0            0            0            0            0            0 
10085000     775.7561    70990.753    542.07264   -299.71953    825.68175    525.96222    1329.1237   -299.71953            0   -7.3768699            0            0            0            0            0            0 
10086000    661.29044    68709.149    516.34366   -326.72295    786.49154    459.76859    1122.4163   -326.72295            0   -7.6218313            0            0            0            0            0            0 
10087000    565.71568    72346.226    466.57549   -308.68984    710.68496    401.99512    998.87918   -308.68984            0   -7.2386574            0            0            0            0            0            0 
10088000    627.72148     69705.94    530.81942   -337.40103    808.54092    471.13989     1109.275   -337.40103            0   -7.5128396            0            0            0            0            0            0 
10089000    674.14469    69513.868     528.3256   -318.49865    804.74235     486.2437    1169.6838   -318.49865            0   -7.5335981            0            0            0            0            0            0 
10090000    748.73746     69625.99     516.7301   -311.10113    787.08016    475.97903    1236.2647   -311.10113            0   -7.5214664            0            0            0            0            0            0 
10091000    708.20736    68617.745    508.61921   -320.38028    774.72569    454.34542    1163.0623   -320.38028            0   -7.6319841            0            0            0            0            0            0 
10092000    678.57995    71716.781    508.19598   -298.39547    774.08103    475.68556     1185.423   -298.39547            0   -7.3021898            0            0            0            0            0            0 
10093000    733.02278    69390.348    530.53853   -320.27828    808.11306    487.83478    1229.6443   -320.27828            0   -7.5470085            0            0            0            0            0            0 
10094000    728.70195    68304.162    523.00189   -329.11501     796.6333    467.51829    1193.4119   -329.11501            0   -7.6670225            0            0            0            0            0            0 
10095000    656.13372    68850.229    523.15623   -328.46609     796.8684    468.40231    1127.2327   -328.46609            0   -7.6062135            0            0            0            0            0            0 
10096000    637.13619    71887.463    525.87701   -311.49861    801.01267    489.51406    1157.4908   -311.49861            0   -7.2848522            0            0            0            0            0            0 
10097000    634.29965    72241.925    509.80067   -318.70953    776.52529    457.81576    1126.0976   -318.70953            0   -7.2491084            0            0            0            0            0            0 
10098000      695.985    66736.113    510.22894   -338.42871    777.17762    438.74892    1116.1356   -338.42871            0   -7.8471688            0            0            0            0            0            0 
10099000    739.31073    68102.251    557.44215   -334.29018     849.0925    514.80233    1249.0868   -334.29018            0   -7.6897539            0            0            0            0            0            0 
10100000    746.81053    67759.555     521.4674   -317.26104    794.29597    477.03494    1215.0358   -317.26104            0    -7.728645            0            0            0            0            0            0 
10101000     639.6534    70630.143    495.57556   -312.62673    754.85768    442.23096    1101.1176   -312.62673            0   -7.4145332            0            0            0            0            0            0 
10102000    687.07915    70664.191    526.40814   -321.52124    801.82168    480.30044      1188.38   -321.52124            0   -7.4109608            0            0            0            0            0            0 
10103000    837.23131      70826.8    527.40905   -286.37636    803.34626     516.9699    1381.7765   -286.37636            0   -7.3939462            0            0            0            0            0            0 
10104000    714.76976    71663.527    489.27146   -299.58197    745.25533    445.67335    1192.7071   -299.58197            0   -7.3076161            0            0            0            0            0            0 
10105000    811.24332    67938.376    511.83304    -316.1133    779.62098    463.50769    1267.2969    -316.1133            0   -7.7083024            0            0            0            0            0            0 
10106000    668.85286    73024.699    516.88556   -300.44121    787.31695    486.87574    1199.1976   -300.44121            0    -7.171403            0            0            0            0            0            0 
10107000    673.34017    68740.794    498.18603   -324.90587    758.83394    433.92807     1108.961   -324.90587            0   -7.6183226            0            0            0            0            0            0 
10108000    612.42478    71466.298     484.9364   -311.80381    738.65219    426.84837    1065.1558   -311.80381            0   -7.3277833            0            0            0            0            0            0 
10109000    655.62304     70283.13    538.53127   -325.80613    820.28756    494.48143    1166.4999   -325.80613            0   -7.4511415            0            0            0            0            0            0 
10110000    744.91491    66719.693    526.08493    -333.3316    801.32938    467.99778    1192.8285    -333.3316            0      -7.8491            0            0            0            0            0            0 
10111000    609.00832    74676.311    500.68679    -298.5323    762.64308    464.11078     1127.368    -298.5323            0   -7.0127935            0            0            0            0            0            0 
10112000    817.70814    69530.965    540.90973   -305.26609    823.91043    518.64434    1347.8313   -305.26609            0   -7.5317457            0            0            0            0            0            0 
10113000    675.34117    70129.342     525.4157    -319.0228       800.31    481.28721    1172.0022    -319.0228            0   -7.4674813            0            0            0            0            0            0 
10114000    614.05108    73341.812    522.13065   -313.77642    795.30624    481.52983    1138.3281   -313.77642            0   -7.1403955            0            0            0            0            0            0 
10115000    556.19476    71124.093    500.98023   -319.77651    763.09005    443.31354    1020.2388   -319.77651            0   -7.3630401            0            0            0            0            0            0 
10116000    744.32491    66456.222    510.61457   -335.17839    777.76502    442.58663    1163.9832   -335.17839            0   -7.8802184            0            0            0            0            0            0 
10117000    759.68276    72046.634    535.03788   -290.51546    814.96646      524.451    1322.6696   -290.51546            0    -7.268758            0            0            0            0            0            0 
10118000    789.08212    69831.268    534.96329    -304.6444    814.85283    510.20843    1313.8234    -304.6444            0   -7.4993561            0            0            0            0            0            0 
10119000    627.02532    69206.277    527.31727    -333.7163    803.20647    469.49017    1102.3484    -333.7163            0   -7.5670816            0            0            0            0            0            0 
10120000    706.84165    68500.949    533.42897   -326.10544    812.51576    486.41032    1192.5565   -326.10544            0    -7.644997            0            0            0            0            0            0 
10121000    665.36816     70708.21    557.34672   -323.35611    848.94714    525.59102    1211.7231   -323.35611            0   -7.4063471            0            0            0            0            0            0 
10122000    719.63059    70691.276    512.83775   -306.57348    781.15134    474.57787     1216.488   -306.57348            0   -7.4081213            0            0            0            0            0            0 
10123000    729.86439    68701.787    509.68244   -314.22658     776.3452    462.11862    1193.4027   -314.22658            0   -7.6226481            0            0            0            0            0            0 
10124000    680.29161    71471.614    505.01521   -301.24964     769.2361    467.98647    1177.0817   -301.24964            0   -7.3272382            0            0            0            0            0            0 
10125000    728.68146    67869.429    522.81324    -323.4325    796.34596    472.91347    1194.1668    -323.4325            0   -7.7161331            0            0            0            0            0            0 
10126000    717.09193     72372.42    539.67639    -297.0372    822.03181    524.99461     1281.869    -297.0372            0   -7.2360375            0            0            0            0            0            0 
10127000    617.50868    70156.634    526.78511   -329.19418    802.39589    473.20171    1105.0135   -329.19418            0   -7.4645763            0            0            0            0            0            0 
10128000    663.19104    67165.922    515.02635   -342.04644    784.48501    442.43857    1092.0648   -342.04644            0   -7.7969531            0            0            0            0            0            0 
10129000    710.23846    70308.218     538.5221   -317.78189     820.2736    502.49172    1230.7512   -317.78189            0   -7.4484826            0            0            0            0            0            0 
10130000    635.76628    73637.045       501.98   -298.14805     764.6129    466.46485    1149.2275   -298.14805            0   -7.1117675            0            0            0            0            0            0 
10131000     747.5045    67937.631    519.11361   -322.36951     790.7107    468.34119    1208.9691   -322.36951            0   -7.7083869            0            0            0            0            0            0 
10132000    707.70102      67793.3     531.6747   -328.35726    809.84368    481.48642    1181.1874   -328.35726            0    -7.724798            0            0            0            0            0            0 
10133000    770.50719    68461.069    554.96342   -314.87584    845.31691    530.44107     1299.742   -314.87584            0   -7.6494503            0            0            0            0            0            0 
10134000    755.19017    69367.779    512.84808   -319.69537    781.16709    461.47172    1225.4658   -319.69537            0   -7.5494639            0            0            0            0            0            0 
10135000    679.98787    74463.521    520.83383   -292.67538    793.33094    500.65556    1239.1048   -292.67538            0   -7.0328335            0            0            0            0            0            0 
10136000    642.37698    68869.761    500.87902   -337.97925    762.93588    424.95664    1070.1567   -337.97925            0   -7.6040564            0            0            0            0            0            0 
10137000    732.43065    69422.322    517.95612   -310.89112    788.94763     478.0565    1219.6084   -310.89112            0   -7.5435325            0            0            0            0            0            0 
10138000     649.0346    71248.748    498.78295   -304.08076    759.74316     455.6624    1130.0677   -304.08076            0   -7.3501578            0            0            0            0            0            0 
10139000    616.28196    66891.529    505.78343   -342.41307    770.40625    427.99319    1029.2036   -342.41307            0   -7.8289367            0            0            0            0            0            0 
10140000    666.50252    69513.075    469.14558   -311.72424     714.5997    402.87546    1078.5603   -311.72424            0    -7.533684            0            0            0            0            0            0 
10141000    764.80291    71277.878    519.68644   -297.62278    791.58323    493.96045    1288.9844   -297.62278            0   -7.3471539            0            0            0            0            0            0 
10142000    623.35928    69679.619    543.44953   -331.56935    827.77903    496.20968     1129.671   -331.56935            0   -7.5156775            0            0            0            0            0            0 
10143000    639.83735    67061.342    505.87022    -339.6377    770.53845    430.90075     1056.675    -339.6377            0   -7.8091122            0            0            0            0            0            0 
10144000    619.86782    74725.352    498.85788   -297.73924    759.85729    462.11805    1137.6454   -297.73924            0   -7.0081911            0            0            0            0            0            0 
10145000    681.85829    70090.152    499.33008    -315.1872    760.57655    445.38935    1142.3801    -315.1872            0   -7.4716566            0            0            0            0            0            0 
10146000    704.40323    69326.529    533.36948   -318.86022    812.42516    493.56494    1205.7563   -318.86022            0    -7.553956            0            0            0            0            0            0 
10147000    781.05614    68490.293    488.40677   -310.90398    743.93822    433.03425    1213.2005   -310.90398            0   -7.6461864            0            0            0            0            0            0 
10148000    708.82457    73549.656     514.1213   -292.13933    783.10645    490.96712    1251.2852   -292.13933            0   -7.1202175            0            0            0            0            0            0 
10149000    784.50342    69859.875    533.46872   -302.35291    812.57631    510.22341    1309.5026   -302.35291            0   -7.4962852            0            0            0            0            0            0 
10150000    703.80776    70057.559    521.57932   -315.77714    794.46645    478.68932    1197.7821   -315.77714            0   -7.4751327            0            0            0            0            0            0 
10151000    607.33375    70224.575    508.15078   -329.79695    774.01219    444.21524    1066.2182   -329.79695            0   -7.4573544            0            0            0            0            0            0 
10152000    703.46867    64538.256     539.7974   -367.45867    822.21613    454.75746    1116.8792   -367.45867            0   -8.1144049            0            0            0            0            0            0 
10153000    640.83788    74994.602    530.64257   -295.10302    808.27155    513.16853    1214.0653   -295.10302            0   -6.9830298            0            0            0            0            0            0 
10154000    685.52816    70444.366    499.53453   -317.02635    760.88797    443.86163     1148.145   -317.02635            0    -7.434087            0            0            0            0            0            0 
10155000    581.22046    72396.974    505.77953   -319.81288    770.40032    450.58744    1064.2607   -319.81288            0   -7.2335833            0            0            0            0            0            0 
10156000    719.83497    71709.503    535.00262   -305.52551    814.91275    509.38724    1262.1975   -305.52551            0   -7.3029309            0            0            0            0            0            0 
10157000    759.81751    67815.855    550.64636   -327.79597     838.7412    510.94523    1262.4235   -327.79597            0   -7.7222288            0            0            0            0            0            0 
10158000       685.13    69367.918     551.2766   -325.96177    839.70117     513.7394     1206.858   -325.96177            0   -7.5494488            0            0            0            0            0            0 
10159000     818.6693    67180.262    529.96633   -316.96822     807.2415    490.27328    1292.3688   -316.96822            0   -7.7952888            0            0            0            0            0            0 
10160000    663.07954    71370.504    531.67587   -314.53245    809.84546      495.313    1185.4897   -314.53245            0   -7.3376187            0            0            0            0            0            0 
10161000     860.8644     67490.29    506.94086   -310.74753    772.16924    461.42171    1308.7504   -310.74753            0   -7.7594799            0            0            0            0            0            0 
10162000    671.10736    70083.608    537.25447   -321.34755    818.34276    496.99521    1182.9324   -321.34755            0   -7.4723542            0            0            0            0            0            0 
10163000    678.84926    72644.997    523.97681   -302.01685     798.1183    496.10145    1215.3102   -302.01685            0   -7.2088866            0            0            0            0            0            0 
10164000    723.49297     69827.22     517.1421    -313.7933    787.70771    473.91441    1210.6895    -313.7933            0   -7.4997909            0            0            0            0            0            0 
10165000    671.02358    71329.091    497.85682   -308.46498    758.33249    449.86751    1147.9076   -308.46498            0   -7.3418788            0            0            0            0            0            0 
10166000    718.25188    67513.353    498.07903    -326.6287    758.67096    432.04226    1139.2424    -326.6287            0   -7.7568291            0            0            0            0            0            0 
10167000    618.49476     70983.31    497.78844   -317.73699    758.22834    440.49134    1080.7687   -317.73699            0   -7.3776434            0            0            0            0            0            0 
10168000     722.6979    64087.357    563.95543    -359.8264    859.01349    499.18709    1174.6555    -359.8264            0   -8.1714954            0            0            0            0            0            0 
10169000    766.67273    70439.981    522.88527    -298.5251    796.45567    497.93057    1285.5295    -298.5251            0   -7.4345498            0            0            0            0            0            0 
10170000     674.3521    71200.511    524.96854   -311.57514     799.6289    488.05376    1188.2918   -311.57514            0   -7.3551375            0            0            0            0            0            0 
10171000     607.9046    73441.608    498.97158   -306.83053    760.03049    453.19995    1104.3086   -306.83053            0   -7.1306928            0            0            0            0            0            0 
10172000    682.02514    67628.794    494.53315   -327.49096     753.2699    425.77895     1098.458   -327.49096            0   -7.7435884            0            0            0            0            0            0 
10173000    755.36289    67852.436     538.6149   -314.30224    820.41495    506.11271    1253.5882   -314.30224            0   -7.7180655            0            0            0            0            0            0 
10174000    630.09868    73700.614    539.27395   -307.35828    821.41881    514.06052    1191.3207   -307.35828            0   -7.1056334            0            0            0            0            0            0 
10175000    829.46178    66862.574    526.15286   -326.96346    801.43285    474.46939    1283.2959   -326.96346            0    -7.832327            0            0            0            0            0            0 
10176000    659.45015    71658.386    497.39433   -312.73404    757.62803    444.89399    1134.0616   -312.73404            0   -7.3081404            0            0            0            0            0            0 
10177000    624.23615    71586.494    541.77229   -314.62476    825.22426     510.5995    1162.3118   -314.62476            0   -7.3154797            0            0            0            0            0            0 
10178000    671.18191    69567.733    526.58029   -327.01396     802.0839    475.06994    1156.0337   -327.01396            0    -7.527765            0            0            0            0            0            0 
10179000    755.14444    70217.027    513.69342   -294.63859     782.4547    487.81611    1261.1167   -294.63859            0   -7.4581561            0            0            0            0            0            0 
10180000    806.34246    69221.775      510.905   -302.00272     778.2074    476.20469    1290.2304   -302.00272            0   -7.5653874            0            0            0            0            0            0 
10181000     739.7042    72825.159    519.59219    -294.7975    791.43967    496.64217    1282.2674    -294.7975            0   -7.1910526            0            0            0            0            0            0 
10182000    700.20405    68614.231    507.69282   -318.03714    773.31463    455.27749    1155.9494   -318.03714            0    -7.632375            0            0            0            0            0            0 
10183000    719.90208     69142.79    534.59722   -316.81197    814.29525    497.48328    1223.4157   -316.81197            0   -7.5740297            0            0            0            0            0            0 
10184000    629.81363    71761.059    523.25487    -316.5046    797.01864    480.51404    1139.6527    -316.5046            0   -7.2976842            0            0            0            0            0            0 
10185000    717.11953    67802.286    505.76374    -333.8726    770.37627    436.50367    1145.6107    -333.8726            0   -7.7237742            0            0            0            0            0            0 
10186000    650.62689    70384.718    510.25705   -317.09593    777.22044    460.12451    1127.9858   -317.09593            0    -7.440387            0            0            0            0            0            0 
10187000    718.37149    71002.648    528.54906   -312.90874    805.08272    492.17398    1236.0482   -312.90874            0    -7.375634            0            0            0            0            0            0 
10188000    644.23323    71540.274    532.33636   -314.16626    810.85151    496.68525    1168.8405   -314.16626            0    -7.320206            0            0            0            0            0            0 
10189000    622.18218    67518.211    513.28352   -345.62493    781.83034    436.20541    1048.8582   -345.62493            0    -7.756271            0            0            0            0            0            0 
10190000    684.07276    72430.945    554.59249   -305.86347    844.75192    538.88845    1261.4957   -305.86347            0   -7.2301907            0            0            0            0            0            0 
10191000    646.80794    74224.623    517.99524   -297.04311    789.00721    491.96409    1192.1272   -297.04311            0   -7.0554692            0            0            0            0            0            0 
10192000    792.03498    65393.972    545.40265   -345.34668    830.75401    485.40733    1240.7743   -345.34668            0   -8.0082235            0            0            0            0            0            0 
10193000    760.06736    69721.774    523.96638   -308.94519    798.10242    489.15723    1262.0093   -308.94519            0   -7.5111334            0            0            0            0            0            0 
10194000    658.66057    69798.075    527.61839   -329.75927    803.66512    473.90585    1144.3784   -329.75927            0   -7.5029225            0            0            0            0            0            0 
10195000    744.19356    69195.931    541.24057   -319.06297    824.41436    505.35139    1256.3556   -319.06297            0    -7.568213            0            0            0            0            0            0 
10196000    666.03556    69088.262    520.38064   -330.05119    792.64064    462.58945    1133.6745   -330.05119            0   -7.5800076            0            0            0            0            0            0 
10197000    605.99608    69942.488    499.32417    -328.5485    760.56755    432.01905     1050.159    -328.5485            0   -7.4874309            0            0            0            0            0            0 
10198000    767.25921    69135.125    505.12347   -319.40766    769.40101    449.99335    1223.5939   -319.40766            0   -7.5748694            0            0            0            0            0            0 
10199000    580.97289     72481.44     524.3255   -312.82705    798.64942    485.82238    1099.9499   -312.82705            0   -7.2251537            0            0            0            0            0            0 
10200000    835.26653    67715.645    541.29188   -315.22435    824.49251    509.26816    1334.1467   -315.22435            0   -7.7336566            0            0            0            0            0            0 
10201000    748.33055    70647.465    532.14591   -317.71883    810.56142    492.84259    1263.8631   -317.71883            0   -7.4127153            0            0            0            0            0            0 
10202000    786.39085    67737.535    555.62466   -320.51878    846.32411    525.80533    1302.6671   -320.51878            0   -7.7311574            0            0            0            0            0            0 
10203000    581.54344    71513.034    531.44724   -319.50123    809.49721    489.99597    1096.5134   -319.50123            0   -7.3229944            0            0            0            0            0            0 
10204000    619.30601    69639.699    489.51239   -325.51666     745.6223    420.10565    1049.0874   -325.51666            0   -7.5199858            0            0            0            0            0            0 
10205000    612.02661     71773.13    545.62102   -317.79237    831.08663    513.29426    1153.9255   -317.79237            0   -7.2964569            0            0            0            0            0            0 
10206000    653.03513    68346.369    526.97941    -339.2684    802.69184    463.42344    1114.3438    -339.2684            0   -7.6622878            0            0            0            0            0            0 
10207000    664.26539    72234.807    508.86117   -302.71392    775.09424    472.38032    1172.1644   -302.71392            0   -7.2498227            0            0            0            0            0            0 
10208000    590.72899    71155.939    504.40746    -322.3312    768.31039    445.97919    1059.0002    -322.3312            0   -7.3597447            0            0            0            0            0            0 
10209000    796.75577     69732.35    538.79595   -309.91517    820.69072    510.77555    1321.0561   -309.91517            0   -7.5099942            0            0            0            0            0            0 
10210000    736.26638    69220.781    539.82741   -317.79314    822.26184    504.46871      1247.74   -317.79314            0    -7.565496            0            0            0            0            0            0 
10211000    720.11472    67061.525    501.18878   -335.15142    763.40771    428.25629    1132.5454   -335.15142            0   -7.8090909            0            0            0            0            0            0 
10212000    639.30146    72259.285    503.59822   -320.06915    767.07775     447.0086    1120.7221   -320.06915            0   -7.2473669            0            0            0            0            0            0 
10213000    605.41839    71349.344    502.90103    -319.6583    766.01579    446.35749    1076.3298    -319.6583            0   -7.3397949            0            0            0            0            0            0 
10214000    611.60123    70059.545    512.33562   -326.36925     780.3865    454.01725    1078.9187   -326.36925            0   -7.4749208            0            0            0            0            0            0 
10215000    604.72928    71366.335    507.48113   -317.24015    772.99217    455.75203    1085.1572   -317.24015            0   -7.3380474            0            0            0            0            0            0 
10216000    661.26106    72054.935    521.33453   -303.17141     794.0936    490.92219    1185.8066   -303.17141            0   -7.2679206            0            0            0            0            0            0 
10217000    692.44375    69502.219    523.06447    -319.4525    796.72863    477.27613      1179.15    -319.4525            0   -7.5348608            0            0            0            0            0            0 
10218000    575.63554    67317.596     507.3305   -350.84397    772.76274    421.91877    987.05362   -350.84397            0   -7.7793857            0            0            0            0            0            0 
10219000    651.74362    70596.664    526.35889   -318.80389    801.74667    482.94278    1153.9649   -318.80389            0   -7.4180495            0            0            0            0            0            0 
10220000     838.0875     65029.78    590.65097   -342.62957    899.67597    557.04639    1351.8824   -342.62957            0   -8.0530727            0            0            0            0            0            0 
10221000    607.68898    73719.244    501.21203   -307.45644    763.44312    455.98668     1109.325   -307.45644            0   -7.1038377            0            0            0            0            0            0 
10222000    672.36447    70351.029    515.69481   -318.70588    785.50321    466.79733    1156.6417   -318.70588            0     -7.44395            0            0            0            0            0            0 
10223000     756.6739    72452.847    500.36363   -283.44821    762.15084    478.70263    1278.2425   -283.44821            0    -7.228005            0            0            0            0            0            0 
10224000    729.24547    71453.311    525.35416   -301.35389    800.21628    498.86238    1258.7896   -301.35389            0   -7.3291152            0            0            0            0            0            0 
10225000    611.77856    68811.259    472.55758    -327.5295    719.79684    392.26735    1006.2126    -327.5295            0   -7.6105212            0            0            0            0            0            0 
10226000     542.9865    73184.383    521.17423   -314.64054    793.84942    479.20888    1058.7488   -314.64054            0   -7.1557554            0            0            0            0            0            0 
10227000    607.07795    66681.004    531.66373   -351.86857    809.82697     457.9584    1048.3259   -351.86857            0   -7.8536542            0            0            0            0            0            0 
10228000    672.85943    69626.397    508.71505   -317.02032    774.87168    457.85136    1141.0927   -317.02032            0   -7.5214225            0            0            0            0            0            0 
10229000    676.57371    68315.469    471.07682   -323.90769    717.54135    393.63366    1067.7115   -323.90769            0   -7.6657535            0            0            0            0            0            0 
10230000    652.21666    70891.592     534.0452   -310.28387    813.45441    503.17054    1177.4851   -310.28387            0   -7.3871883            0            0            0            0            0            0 
10231000    702.32604    71404.056    530.92761   -317.67856    808.70571    491.02715    1222.3978   -317.67856            0   -7.3341708            0            0            0            0            0            0 
10232000    729.89622    71359.758    484.58011   -302.33755    738.10949    435.77194    1195.3814   -302.33755            0   -7.3387236            0            0            0            0            0            0 
10233000    819.63006    68411.131    517.02372   -313.90483    787.52739    473.62256    1291.3725   -313.90483            0   -7.6550342            0            0            0            0            0            0 
10234000    688.88328    74294.892    542.65683   -290.27058    826.57159    536.30102    1282.7162   -290.27058            0   -7.0487961            0            0            0            0            0            0 
10235000    638.36985    69953.302    505.97947   -321.06207    770.70485    449.64278    1100.9059   -321.06207            0   -7.4862734            0            0            0            0            0            0 
10236000    647.03459    70355.539    501.50751   -324.73122    763.89321    439.16198    1103.0605   -324.73122            0   -7.4434729            0            0            0            0            0            0 
10237000    738.55481    71169.834    530.57399   -305.31848    808.16709    502.84861    1269.4235   -305.31848            0   -7.3583078            0            0            0            0            0            0 
10238000    683.20577    72060.402     530.7967   -312.80357    808.50632    495.70275    1213.7022   -312.80357            0   -7.2673692            0            0            0            0            0            0 
10239000    832.42997    68039.377    522.09912   -309.77156    795.25821    485.48665     1311.494   -309.77156            0   -7.6968598            0            0            0            0            0            0 
10240000    608.10745     73821.14    508.25881   -309.23224    774.17674     464.9445    1119.6364   -309.23224            0   -7.0940322            0            0            0            0            0            0 
10241000    858.71916    68659.135    508.19509   -298.81525    774.07968    475.26443    1335.1197   -298.81525            0   -7.6273834            0            0            0            0            0            0 
10242000    744.28715    67885.607    509.26567   -307.76781    775.71038    467.94256    1204.8181   -307.76781            0   -7.7142942            0            0            0            0            0            0 
10243000    578.72525    72913.727      500.671   -308.09698    762.61903    454.52205    1069.9222   -308.09698            0   -7.1823176            0            0            0            0            0            0 
10244000    641.73655    67294.334    518.76918   -344.63958    790.18606    445.54648    1075.3588   -344.63958            0   -7.7820749            0            0            0            0            0            0 
10245000    696.01351    70732.124    558.97412   -318.29808    851.42598     533.1279    1251.1044   -318.29808            0    -7.403843            0            0            0            0            0            0 
10246000    724.16152    72385.523    538.10564   -303.88537    819.63925    515.75388    1280.2285   -303.88537            0   -7.2347277            0            0            0            0            0            0 
10247000    733.47197     69063.75    509.47295   -322.32502    776.02611     453.7011    1192.4716   -322.32502            0   -7.5826978            0            0            0            0            0            0 
10248000     602.4621    75226.024    508.32423   -286.56119    774.27638    487.71518     1148.673   -286.56119            0   -6.9615475            0            0            0            0            0            0 
10249000     645.6691     69340.92    521.73589   -330.00087    794.70495    464.70408    1117.6474   -330.00087            0   -7.5523882            0            0            0            0            0            0 
10250000    624.93446    69919.959    541.31921    -328.1136    824.53413    496.42053     1133.673    -328.1136            0   -7.4898435            0            0            0            0            0            0 
10251000    686.08262    70040.685    525.52933   -317.16761    800.48309    483.31548    1184.1294   -317.16761            0   -7.4769335            0            0            0            0            0            0 
10252000     722.4318    68366.551    537.64621     -331.061    818.93945    487.87845    1208.1834     -331.061            0   -7.6600258            0            0            0            0            0            0 
10253000     663.8488     72140.19    523.42783    -304.2519    797.28209    493.03019    1191.4593    -304.2519            0   -7.2593314            0            0            0            0            0            0 
10254000    761.85839    67663.432    515.76242    -326.3721    785.60619    459.23409    1211.0373    -326.3721            0   -7.7396243            0            0            0            0            0            0 
10255000    597.75056     70068.14    493.31007   -327.27047     751.4069    424.13643     1034.961   -327.27047            0   -7.4740038            0            0            0            0            0            0 
10256000    638.95758    72101.526    535.33599   -308.67314    815.42053    506.74738    1178.6284   -308.67314            0   -7.2632242            0            0            0            0            0            0 
10257000    658.58406    68649.241    504.89375   -326.58334     769.0511    442.46776    1101.8281   -326.58334            0   -7.6284827            0            0            0            0            0            0 
10258000    714.24622    71991.543    546.59161   -297.97763    832.56502    534.58739    1284.4908   -297.97763            0   -7.2743203            0            0            0            0            0            0 
10259000    748.93741    68887.963    527.69428   -314.62658    803.78073    489.15415    1241.5818   -314.62658            0   -7.6020472            0            0            0            0            0            0 
10260000    704.64564    69709.201    525.59549   -316.02079    800.58387    484.56307     1200.932   -316.02079            0   -7.5124882            0            0            0            0            0            0 
10261000    643.55347    69767.617    516.41964   -319.61412    786.60727    466.99315    1121.8018   -319.61412            0   -7.5061979            0            0            0            0            0            0 
10262000    688.40579    69259.022    535.60752   -324.55736    815.83413    491.27677     1186.616   -324.55736            0   -7.5613188            0            0            0            0            0            0 
10263000    708.71092    68816.568    548.85318   -332.90409    836.00983    503.10574    1214.3815   -332.90409            0    -7.609934            0            0            0            0            0            0 
10264000    734.32714    69121.683    531.02305   -309.53121    808.85108    499.31988    1239.5722   -309.53121            0   -7.5763425            0            0            0            0            0            0 
10265000    667.80986    68042.158    505.53168   -338.40697    770.02279    431.61583    1094.3003   -338.40697            0   -7.6965452            0            0            0            0            0            0 
10266000    618.71243    73456.245    487.46909   -297.63932    742.50996    444.87064    1107.6874   -297.63932            0   -7.1292719            0            0            0            0            0            0 
10267000    633.81762    69141.132    523.60626   -335.23453    797.55388    462.31936    1101.4309   -335.23453            0   -7.5742113            0            0            0            0            0            0 
10268000    875.01752    69060.166    558.37232   -295.50584    850.50934     555.0035    1436.2964   -295.50584            0   -7.5830913            0            0            0            0            0            0 
10269000    676.20468    72252.268    521.82879   -310.27349    794.84645    484.57297    1197.1069   -310.27349            0   -7.2480707            0            0            0            0            0            0 
10270000    635.30655    69478.934    504.74025   -314.85887    768.81728    453.95841    1097.7012   -314.85887            0    -7.537386            0            0            0            0            0            0 
10271000    668.15273      69239.6    525.39603   -341.05387    800.28005    459.22618    1133.9192   -341.05387            0   -7.5634398            0            0            0            0            0            0 
10272000    537.33363    74329.675    546.41815   -314.57508    832.30081    517.72573    1100.2072   -314.57508            0   -7.0454976            0            0            0            0            0            0 
10273000    724.80408    70777.497    542.47043    -308.0487    826.28768    518.23898    1266.3942    -308.0487            0   -7.3990968            0            0            0            0            0            0 
10274000    716.38473    69859.269    506.34598   -318.27352    771.26313    452.98961    1182.8608   -318.27352            0   -7.4963502            0            0            0            0            0            0 
10275000    601.05849    71791.445    513.19202   -320.12153    781.69098    461.56945    1090.8804   -320.12153            0   -7.2945954            0            0            0            0            0            0 
10276000    644.62585    69284.582    525.82038   -331.43161    800.92641    469.49481    1120.8535   -331.43161            0   -7.5585293            0            0            0            0            0            0 
10277000    654.03914    69726.418    531.16227   -328.60067    809.06314    480.46248    1145.5472   -328.60067            0   -7.5106332            0            0            0            0            0            0 
10278000    676.78985    72789.572    543.65023   -299.73295    828.08474    528.35179    1246.8057   -299.73295            0   -7.1945683            0            0            0            0            0            0 
10279000    843.15089    66771.764    523.57589   -313.34137    797.50762    484.16626    1305.2246   -313.34137            0   -7.8429791            0            0            0            0            0            0 
10280000    637.08393    71988.167    500.88022   -309.66619    762.93771    453.27152    1122.1291   -309.66619            0   -7.2746615            0            0            0            0            0            0 
10281000    574.91509    70341.131    524.97897   -335.40989    799.64478    464.23488    1054.0134   -335.40989            0   -7.4449975            0            0            0            0            0            0 
10282000     778.0892    68544.126    503.96579   -307.96184    767.63763    459.67578    1237.4894   -307.96184            0   -7.6401812            0            0            0            0            0            0 
10283000    708.65338    70473.489    500.56868   -304.52266    762.46318    457.94052    1186.2828   -304.52266            0   -7.4310149            0            0            0            0            0            0 
10284000    751.31222    70061.327    532.66562   -309.89209    811.35304    501.46096    1269.1312   -309.89209            0   -7.4747306            0            0            0            0            0            0 
10285000    615.61187    71034.719    529.65247    -329.8239    806.76342    476.93953     1114.694    -329.8239            0    -7.372304            0            0            0            0            0            0 
10286000    808.46778    65291.573    513.81386   -337.49764    782.63815    445.14052    1214.9721   -337.49764            0   -8.0207831            0            0            0            0            0            0 
10287000    550.45018    71679.013    508.51501   -331.10694    774.56697    443.46003    1018.8813   -331.10694            0   -7.3060373            0            0            0            0            0            0 
10288000    614.53008      71633.1     533.3284   -323.48666    812.36259    488.87593    1130.8726   -323.48666            0   -7.3107201            0            0            0            0            0            0 
10289000    690.49637    68683.978    529.99861   -336.54757    807.29067    470.74311    1162.4032   -336.54757            0   -7.6246246            0            0            0            0            0            0 
10290000     778.4046    68871.899    512.65617   -317.43301    780.87477    463.44177    1245.2916   -317.43301            0   -7.6038203            0            0            0            0            0            0 
10291000    579.69404    74409.069    517.42587   -300.32081    788.13995    487.81914    1116.8915   -300.32081            0   -7.0379801            0            0            0            0            0            0 
10292000    700.48286    68837.141     518.5454   -328.46367    789.84521    461.38155    1164.6097   -328.46367            0   -7.6076597            0            0            0            0            0            0 
10293000    834.15314    68063.814    539.04481   -307.28975    821.06978    513.78003    1341.7946   -307.28975            0   -7.6940964            0            0            0            0            0            0 
10294000    579.96905     71097.74    507.22585   -319.23849    772.60333    453.36484    1054.7276   -319.23849            0   -7.3657692            0            0            0            0            0            0 
10295000    732.61632    68712.192    485.35993   -310.73745     739.2973    428.55985    1162.7123   -310.73745            0   -7.6214938            0            0            0            0            0            0 
10296000    647.48631     71106.57    525.33708   -313.09742    800.19025    487.09283    1158.5467   -313.09742            0   -7.3648545            0            0            0            0            0            0 
10297000    815.72502    72349.622    569.12314   -291.30957    866.88491    575.57535    1436.2835   -291.30957            0   -7.2383176            0            0            0            0            0            0 
10298000     734.2788    70475.125    502.72048   -302.95039    765.74079     462.7904    1217.4876   -302.95039            0   -7.4308424            0            0            0            0            0            0 
10299000    703.78943    71062.425    515.36128   -316.45803    784.99518    468.53715    1197.9252   -316.45803            0   -7.3694297            0            0            0            0            0            0 
10300000    854.06664    66071.329    535.47029   -320.34755     815.6251    495.27755    1318.2413   -320.34755            0    -7.926124            0            0            0            0            0            0 
10301000    673.12623    70335.158    530.24214   -315.71647    807.66162    491.94515    1182.4152   -315.71647            0   -7.4456298            0            0            0            0            0            0 
10302000     748.6888    70053.914    535.72275   -308.81398    816.00965    507.19567    1272.1044   -308.81398            0   -7.4755216            0            0            0            0            0            0 
10303000    574.35977    74700.364    501.29843   -300.29294    763.57472    463.28178    1089.0055   -300.29294            0   -7.0105354            0            0            0            0            0            0 
10304000    680.29805    67137.008    515.49201   -332.57497    785.19431    452.61934    1118.7158   -332.57497            0    -7.800311            0            0            0            0            0            0 
10305000    706.33882    69877.436    507.64291   -309.03684    773.23861    464.20177    1184.0251   -309.03684            0   -7.4944013            0            0            0            0            0            0 
10306000    647.65422    72351.649    508.34419   -309.92154    774.30678    464.38525    1147.7735   -309.92154            0   -7.2381148            0            0            0            0            0            0 
10307000    802.74321     68806.36     529.7191   -304.90997    806.86492    501.95495    1307.4838   -304.90997            0   -7.6110631            0            0            0            0            0            0 
10308000    677.82613    73034.002    544.96449   -309.63315    830.08661    520.45346    1242.4237   -309.63315            0   -7.1704896            0            0            0            0            0            0 
10309000    652.29415    72272.781    533.20895   -295.80042    812.18064    516.38022    1203.9142   -295.80042            0   -7.2460134            0            0            0            0            0            0 
10310000     746.9551    67025.011    506.67817    -326.1711    771.76911    445.59801    1175.7399    -326.1711            0   -7.8133451            0            0            0            0            0            0 
10311000    578.00577    72091.879     525.8246   -319.49218    800.93284    481.44066    1089.1479   -319.49218            0   -7.2641961            0            0            0            0            0            0 
10312000    691.70936    67506.543     531.3497   -340.32366    809.34864    469.02498    1150.0223   -340.32366            0   -7.7576117            0            0            0            0            0            0 
10313000    688.60297    70495.459    509.73814   -312.11906    776.43005    464.31099    1172.2664   -312.11906            0    -7.428699            0            0            0            0            0            0 
10314000    722.76927    66962.098    508.60378      -325.24     774.7022    449.46219    1155.2995      -325.24            0    -7.820686            0            0            0            0            0            0 
10315000    672.85027    69721.935    505.71512   -320.68714     770.3022    449.61506    1133.7846   -320.68714            0    -7.511116            0            0            0            0            0            0 
10316000    646.64271    71658.466    504.16237   -310.88113    767.93707    457.05594    1132.8398   -310.88113            0   -7.3081322            0            0            0            0            0            0 
10317000    605.67008    69232.736    481.13393    -328.6814    732.86029    404.17889     1015.717    -328.6814            0   -7.5641896            0            0            0            0            0            0 
10318000    764.16907     70151.71    493.98482   -305.27277    752.43468    447.16192    1228.9762   -305.27277            0   -7.4651002            0            0            0            0            0            0 
10319000    815.40469    65774.662    533.12027   -330.62085    812.04556    481.42471    1263.6065   -330.62085            0   -7.9618736            0            0            0            0            0            0 
10320000    608.35084    74665.468    520.21518   -302.26182    792.38861    490.12679    1152.5717   -302.26182            0   -7.0138118            0            0            0            0            0            0 
10321000    696.06526    70296.334    501.45273   -308.72848    763.80976    455.08128    1168.6873   -308.72848            0   -7.4497419            0            0            0            0            0            0 
10322000    610.10088    71328.859    487.26012   -316.22265    742.19165    425.96901    1060.6315   -316.22265            0   -7.3419027            0            0            0            0            0            0 
10323000    682.30687    69070.097    532.41013   -324.93608    810.96387    486.02779    1173.3268   -324.93608            0    -7.582001            0            0            0            0            0            0 
10324000    637.09147    70964.703    517.00166   -312.39202     787.4938    475.10178    1134.4579   -312.39202            0   -7.3795778            0            0            0            0            0            0 
10325000      670.495    70661.502    525.35894   -320.34062    800.22355    479.88294    1170.8452   -320.34062            0   -7.4112427            0            0            0            0            0            0 
10326000    785.78021    67794.669    521.75502   -319.74004    794.73408    474.99403    1251.9073   -319.74004            0    -7.724642            0            0            0            0            0            0 
10327000      674.949    72801.868    499.74839   -298.02101    761.21371     463.1927    1179.8134   -298.02101            0   -7.1933531            0            0            0            0            0            0 
10328000    772.60093    67601.636    508.84089   -329.43358    775.06336    445.62978    1207.3374   -329.43358            0   -7.7466993            0            0            0            0            0            0 
10329000    632.50831    73219.726    529.70271    -305.8336    806.83995    501.00635    1176.4206    -305.8336            0   -7.1523014            0            0            0            0            0            0 
10330000     722.2801     66001.26    482.86891   -336.19849    735.50299     399.3045    1094.5429   -336.19849            0   -7.9345386            0            0            0            0            0            0 
10331000    720.67969    68435.098    507.59164   -322.83237    773.16051    450.32814    1169.6066   -322.83237            0   -7.6523532            0            0            0            0            0            0 
10332000    686.11978     71235.62    541.36686   -315.43416    824.60673    509.17256    1221.9813   -315.43416            0   -7.3515124            0            0            0            0            0            0 
10333000    669.66862    69831.571    545.97811   -324.27915    831.63054    507.35139    1189.3565   -324.27915            0   -7.4993235            0            0            0            0            0            0 
10334000    658.33424    70957.146    531.56888   -321.43761     809.6825    488.24489    1169.5136   -321.43761            0   -7.3803637            0            0            0            0            0            0 
10335000    720.44658    70395.996    499.44859   -309.51199    760.75707    451.24507     1190.894   -309.51199            0   -7.4391951            0            0            0            0            0            0 
10336000    789.58658    67822.402    518.00706   -313.33528    789.02522    475.68994    1256.6859   -313.33528            0   -7.7214833            0            0            0            0            0            0 
10337000    645.01368    71613.532     526.1543   -319.06986    801.43504    482.36518    1156.0239   -319.06986            0   -7.3127178            0            0            0            0            0            0 
10338000    711.35985    66844.203    536.35508   -341.18195     816.9728    475.79085    1169.2629   -341.18195            0   -7.8344796            0            0            0            0            0            0 
10339000     608.4719    73291.744    505.26255   -300.99507    769.61286    468.61779    1119.0042   -300.99507            0   -7.1452734            0            0            0            0            0            0 
10340000     698.7991    71231.645    537.99012   -313.42798    819.46329    506.03531    1231.9761   -313.42798            0   -7.3519226            0            0            0            0            0            0 
10341000     865.1128    67764.522    509.58497   -299.48241    776.19674    476.71433    1331.6846   -299.48241            0   -7.7280785            0            0            0            0            0            0 
10342000    624.65603    72616.084    502.91944   -306.44721    766.04384    459.59663    1121.1268   -306.44721            0   -7.2117569            0            0            0            0            0            0 
10343000     607.2679    70958.764    532.07829   -324.53171    810.45842    485.92671    1114.3644   -324.53171            0   -7.3801955            0            0            0            0            0            0 
10344000    706.24068    68703.212    526.18229   -331.57389    801.47768    469.90379    1177.5329   -331.57389            0   -7.6224899            0            0            0            0            0            0 
10345000     587.1372     70247.02    511.03143   -333.05856    778.39998    445.34142    1046.8522   -333.05856            0   -7.4549717            0            0            0            0            0            0 
10346000    698.83925    68005.872    500.54817   -320.74069    762.43193    441.69125    1134.7971   -320.74069            0   -7.7006519            0            0            0            0            0            0 
10347000    830.38343    67620.279    505.42851   -321.37697    769.86564    448.48868    1267.3899   -321.37697            0   -7.7445635            0            0            0            0            0            0 
10348000     711.7126    72199.097    554.96154   -303.99333    845.31405    541.32072    1290.7183   -303.99333            0   -7.2534085            0            0            0            0            0            0 
10349000    758.92845    71011.568    508.31554   -293.19985    774.26314    481.06329     1267.033   -293.19985            0   -7.3747075            0            0            0            0            0            0 
10350000    780.10409    65724.365    537.46845   -339.02157    818.66868    479.64711    1227.3944   -339.02157            0   -7.9679666            0            0            0            0            0            0 
10351000    643.42918    68843.093     520.0064   -327.42993    792.07059    464.64066    1110.6474   -327.42993            0   -7.6070019            0            0            0            0            0            0 
10352000    700.79571    69488.002    516.35072    -323.9882    786.50228    462.51408    1172.7083    -323.9882            0   -7.5364024            0            0            0            0            0            0 
10353000    725.22423    70017.997    514.75859   -313.60281    784.07716    470.47435    1211.0303   -313.60281            0   -7.4793563            0            0            0            0            0            0 
[...]
14939000    713.89251    67610.905    557.95619    -341.6144    849.87548    508.26108    1212.1846    -341.6144            0   -7.7456372            0            0            0            0            0            0 
14940000    720.24208    73432.935    516.86008    -284.9326    787.27813    502.34553    1273.6845    -284.9326            0    -7.131535            0            0            0            0            0            0 
14941000    686.86273    68612.546     507.2762   -326.28436    772.68004    446.39567    1133.7005   -326.28436            0   -7.6325624            0            0            0            0            0            0 
14942000    688.38504    69193.146    518.82016   -329.17786    790.26372    461.08586    1155.7428   -329.17786            0   -7.5685176            0            0            0            0            0            0 
14943000    594.72725    73292.008    538.26467   -316.12693    819.88147    503.75455    1139.4518   -316.12693            0   -7.1452476            0            0            0            0            0            0 
14944000    694.59743    69313.747    527.84479   -321.94612    804.00998    482.06386    1184.2115   -321.94612            0    -7.555349            0            0            0            0            0            0 
14945000    597.71127    73897.553    537.15248   -321.40362     818.1874    496.78378    1140.9492   -321.40362            0   -7.0866967            0            0            0            0            0            0 
14946000     558.1368    68641.129    493.48689   -349.78666    751.67624    401.88958    960.61826   -349.78666            0   -7.6293842            0            0            0            0            0            0 
14947000    564.58999    70819.852    523.91878   -326.17485    798.02991    471.85506    1054.9833   -326.17485            0   -7.3946716            0            0            0            0            0            0 
14948000    681.29424    70202.883    561.26036   -328.41525    854.90838    526.49312    1224.0274   -328.41525            0   -7.4596587            0            0            0            0            0            0 
14949000    760.51302    71462.993    509.89415   -294.12389    776.66767    482.54378    1275.1614   -294.12389            0   -7.3281222            0            0            0            0            0            0 
14950000    677.63138    68145.666    542.31112   -335.34827    826.04501    490.69674    1164.1503   -335.34827            0   -7.6848547            0            0            0            0            0            0 
14951000    640.94411    73729.998    531.06657   -302.38638    808.91737      506.531    1195.7231   -302.38638            0   -7.1028015            0            0            0            0            0            0 
14952000    754.96868    69510.823    511.71721   -315.84368    779.44455    463.60087    1228.9459   -315.84368            0   -7.5339282            0            0            0            0            0            0 
14953000    625.48892     70213.49    516.72755   -325.17871    787.07627    461.89756     1102.393   -325.17871            0   -7.4585318            0            0            0            0            0            0 
14954000    639.75279     72143.35    504.49789   -310.50053    768.44813     457.9476     1131.055   -310.50053            0   -7.2590134            0            0            0            0            0            0 
14955000     752.1395     67254.01    534.75966    -327.9639    814.54267    486.57876    1224.3003    -327.9639            0   -7.7867408            0            0            0            0            0            0 
14956000    576.59413    74536.557    513.52966   -297.39681    782.20527    484.80846    1111.5889   -297.39681            0   -7.0259422            0            0            0            0            0            0 
14957000    673.80737     70736.28    528.19707   -311.98022    804.54657    492.56635    1187.6769   -311.98022            0   -7.4034081            0            0            0            0            0            0 
14958000    736.30824    69025.353    530.75121   -325.18763    808.43703    483.24939    1224.4644   -325.18763            0   -7.5869158            0            0            0            0            0            0 
14959000    716.53346    68508.154    529.64577    -327.3725    806.75322    479.38072    1195.2845    -327.3725            0    -7.644193            0            0            0            0            0            0 
14960000    682.68651    69341.137    514.14114   -315.64508    783.13666    467.49158    1157.8715   -315.64508            0   -7.5523646            0            0            0            0            0            0 
14961000    735.95945    70371.115    512.56143   -302.07625    780.73046    478.65421    1233.9624   -302.07625            0   -7.4418253            0            0            0            0            0            0 
14962000    655.75167    70878.149    527.30506   -322.17378    803.18786    481.01409    1158.8548   -322.17378            0   -7.3885894            0            0            0            0            0            0 
14963000    690.91181    73534.782    486.42009    -281.8325    740.91213    459.07962    1200.0337    -281.8325            0   -7.1216577            0            0            0            0            0            0 
14964000    784.16896    66551.456    517.66426   -321.33099    788.50305    467.17207    1228.2745   -321.33099            0    -7.868942            0            0            0            0            0            0 
14965000    657.69421    70278.813    550.96151   -333.91713    839.22123     505.3041    1179.4041   -333.91713            0   -7.4515992            0            0            0            0            0            0 
14966000    542.05437    68812.812    477.48361   -342.23287    727.30014    385.06728    929.05368   -342.23287            0   -7.6103494            0            0            0            0            0            0 
14967000    836.87208    68577.737    495.83775   -297.85664    755.25705    457.40041    1294.3863   -297.85664            0   -7.6364366            0            0            0            0            0            0 
14968000    673.20559    70186.458    527.23539   -318.07884    803.08174     485.0029    1174.0945   -318.07884            0   -7.4614044            0            0            0            0            0            0 
14969000    848.69506    68586.443    505.68675   -288.92269    770.25899    481.33631    1330.2545   -288.92269            0   -7.6354673            0            0            0            0            0            0 
14970000    611.08194    73555.997    537.45051   -309.75314    818.64136    508.88821    1164.4195   -309.75314            0   -7.1196037            0            0            0            0            0            0 
14971000    684.30749    68571.559    490.32589   -322.18644    746.86142    424.67499    1109.0139   -322.18644            0   -7.6371247            0            0            0            0            0            0 
14972000     835.3933    66537.152    500.83538   -315.60212    762.86941    447.26729     1257.913   -315.60212            0   -7.8706337            0            0            0            0            0            0 
14973000    662.67062    72646.594    513.97145   -295.43078    782.87819    487.44741    1189.5311   -295.43078            0   -7.2087281            0            0            0            0            0            0 
14974000    727.34204    69037.054    522.77446   -320.88654    796.28688    475.40034    1207.7135   -320.88654            0     -7.58563            0            0            0            0            0            0 
14975000    878.69344    68967.265    520.72369   -292.77013    793.16316    500.39303    1384.1977   -292.77013            0    -7.593306            0            0            0            0            0            0 
14976000    671.32454    69768.843    523.55047   -323.49553     797.4689    473.97337    1157.0508   -323.49553            0   -7.5060661            0            0            0            0            0            0 
14977000    614.64315    66381.284    491.52245   -345.43378    748.68401    403.25024    998.28807   -345.43378            0   -7.8891145            0            0            0            0            0            0 
14978000    734.75623    71471.549    546.36768   -303.85821    832.22394    528.36573     1294.231   -303.85821            0   -7.3272449            0            0            0            0            0            0 
14979000    673.39231    72790.355    537.13867   -308.68844    818.16636    509.47792    1224.3328   -308.68844            0   -7.1944909            0            0            0            0            0            0 
14980000    740.23494    68772.882    514.41485   -320.75216    783.55358    462.80143    1205.2437   -320.75216            0    -7.614768            0            0            0            0            0            0 
14981000    689.01442    72948.534    512.17546     -297.621    780.14255    482.52155    1215.5499     -297.621            0   -7.1788907            0            0            0            0            0            0 
14982000    640.79909    69830.519    549.76171   -331.39308     837.3937    506.00062    1158.5946   -331.39308            0   -7.4994365            0            0            0            0            0            0 
14983000    620.02555    68224.002    500.37048   -338.43214    762.16129    423.72914    1040.6404   -338.43214            0   -7.6760308            0            0            0            0            0            0 
14984000    698.48885    70817.779    538.72508   -315.24657    820.58277     505.3362    1226.7387   -315.24657            0   -7.3948881            0            0            0            0            0            0 
14985000    835.74364     70335.23    553.37081   -290.38508    842.89106    552.50598    1409.7844   -290.38508            0   -7.4456221            0            0            0            0            0            0 
14986000    740.32174    68661.578    529.79491   -323.01353     806.9804    483.96687    1225.2945   -323.01353            0    -7.627112            0            0            0            0            0            0 
14987000    838.39201    64814.743    505.68645   -337.78086    770.25854    432.47767    1224.9732   -337.78086            0   -8.0797905            0            0            0            0            0            0 
14988000    654.48875    72464.933    541.88874   -307.34747    825.40164    518.05417    1209.7354   -307.34747            0   -7.2267995            0            0            0            0            0            0 
14989000    660.97479    72354.897    528.16309   -311.04738    804.49482    493.44744    1190.9225   -311.04738            0   -7.2377899            0            0            0            0            0            0 
14990000    664.15833    66957.405    502.17147   -337.58524    764.90454     427.3193    1075.8733   -337.58524            0   -7.8212342            0            0            0            0            0            0 
14991000    670.87381    68453.217     498.6359   -330.16412    759.51917    429.35506    1099.1018   -330.16412            0   -7.6503277            0            0            0            0            0            0 
14992000      729.585    73651.547    536.77678   -298.90964    817.61513    518.70549    1302.3763   -298.90964            0   -7.1103673            0            0            0            0            0            0 
14993000    788.19378     68569.99    512.46753   -311.53776    780.58743    469.04967    1257.2615   -311.53776            0   -7.6372995            0            0            0            0            0            0 
14994000    683.38126    69223.465    505.05834   -322.81108     769.3018    446.49072    1136.4005   -322.81108            0   -7.5652028            0            0            0            0            0            0 
14995000    646.16556    69995.843    524.93513   -326.31126      799.578    473.26674    1132.8839   -326.31126            0   -7.4817236            0            0            0            0            0            0 
14996000    827.95277    72076.061    517.39847    -287.6259    788.09821    500.47231    1370.7793    -287.6259            0   -7.2657903            0            0            0            0            0            0 
14997000    704.46766    64380.229     512.7439   -353.95335     781.0084    427.05504    1088.4935   -353.95335            0   -8.1343226            0            0            0            0            0            0 
14998000    630.90522    72394.283    523.71976   -320.35982    797.72676    477.36694    1143.4744   -320.35982            0   -7.2338523            0            0            0            0            0            0 
14999000    716.69232    68786.619    549.54038   -330.87886    837.05658    506.17772    1225.1507   -330.87886            0   -7.6132474            0            0            0            0            0            0 
15000000    657.54326    71984.151    505.37938   -313.62454    769.79081    456.16627    1146.4651   -313.62454            0   -7.2750673            0            0            0            0            0            0 
Loop time of 1270.81 on 8 procs for 5000000 steps with 512 atoms

Pair  time (%) = 670.275 (52.7441)
Bond  time (%) = 0.463224 (0.0364513)
Neigh time (%) = 34.6602 (2.72742)
Comm  time (%) = 409.22 (32.2017)
Outpt time (%) = 0.239192 (0.018822)
Other time (%) = 155.948 (12.2716)

Nlocal:    64 ave 70 max 53 min
Histogram: 1 0 0 0 1 0 0 4 1 1
Nghost:    1080.75 ave 1124 max 1046 min
Histogram: 2 0 1 2 0 1 0 0 0 2
Neighs:    4606.75 ave 5081 max 3734 min
Histogram: 1 0 1 0 0 0 1 2 1 2

Total # of neighbors = 36854
Ave neighs/atom = 71.9805
Ave special neighs/atom = 0
Neighbor list builds = 105448
Dangerous builds = 0

Averages
Group Pressure(MPa) Volume(m3) Temperature(K) PE(J) KE(J) ET(J) ET^2(J) H(J) H^2(J^2) V^2(m6) V*H(m3*J) Hconf(J) Uext*Hconf(J^2) V*Hconf(m3*J) Uext(J)
Block1 69.973312806523139784 7.0087480408502302146e-26 519.85995928517434095 -2.2007918971772914931e-18 5.5015150535273847685e-18 3.3007231563500909643e-18 1.094314754209742414e-35 8.1975731855998190644e-18 6.7535466591761037502e-35 4.9167222034124046206e-51 5.7446532295017253056e-43 2.6960581320724173477e-18 -5.9058015859669961004e-36 1.8889272376275399291e-43 -2.2007918971772914931e-18
Block2 69.937063479054145887 7.002400762453438553e-26 520.61545307055405374 -2.2088819545470377462e-18 5.5095102075277549012e-18 3.3006282529807133032e-18 1.0944992992467339446e-35 8.1918081089352573947e-18 6.7427845411888602838e-35 4.9074074623292549538e-51 5.7364579715874984221e-43 2.682297901407515975e-18 -5.8965225038383679452e-36 1.8781106874879395634e-43 -2.2088819545470377462e-18
Block3 69.820113132263827538 7.0105937377691430061e-26 519.36764925874274468 -2.2048873318871444498e-18 5.4963050907806242735e-18 3.291417758893467883e-18 1.0884149858313961355e-35 8.1795801387854558897e-18 6.7238436668245690077e-35 4.9190181615266872707e-51 5.7339845220856753384e-43 2.683275048004852031e-18 -5.8890517715385865258e-36 1.8806447839258810959e-43 -2.2048873318871444498e-18
Block4 70.086502286823829877 7.0043849779178565385e-26 519.93273828561041228 -2.2039648490382093455e-18 5.5022852508840537152e-18 3.2983204018458443697e-18 1.092957851763123243e-35 8.1999198016231113453e-18 6.7537777261582612182e-35 4.9106158576741369128e-51 5.7428712423593533109e-43 2.697634550739055319e-18 -5.9222367148421489384e-36 1.8887010647321897563e-43 -2.2039648490382093455e-18
Block5 69.806304208481691376 7.0033439257688331373e-26 519.52563000046484376 -2.2095370656644764071e-18 5.4979769514677563964e-18 3.2884398858032819152e-18 1.0862162164495623835e-35 8.1705859581946485249e-18 6.7081143794411646723e-35 4.909476411963246169e-51 5.7224580123801435512e-43 2.6726090067268982915e-18 -5.8741265087417163821e-36 1.8719781475025395713e-43 -2.2095370656644764071e-18
Ave_blocks 69.924659182629326892 7.0058942889519005195e-26 519.86028598010921087 -2.2056126196628315802e-18 5.501518510837514965e-18 3.295905891174679533e-18 1.0912806215001115974e-35 8.1878934386276587519e-18 6.7364133945577922141e-35 4.912648019381145748e-51 5.736084995582878867e-43 2.6863749277901476387e-18 -5.8975478169855635793e-36 1.8816723842552184611e-43 -2.2056126196628315802e-18
Stdev_blocks 0.10358765236805121679 3.2004942943736228712e-29 0.43132640580965636579 3.2425416782651952558e-21 4.5645921986496531244e-21 5.0442278726853585988e-21 3.3537744525611250184e-38 1.1156302121814689422e-20 1.7857729921046387532e-37 4.4458947244801060424e-54 7.8703691021372964878e-46 9.3410442205494988253e-21 1.6121154517663919543e-38 6.4769610036981231835e-46 3.2425416782651952558e-21






Properties
Group rho(kg/m3) Cp(J/K) Cp_conf(J/K) Cp_id(J/K) Cp2(J/K) kT(1/Pa) aP(1/K) aP2(1/K) Cv(J/K) uJT(K/Pa) sos(m/s) Cv2(J/K) uJT2(K/Pa) sos2(m/s) CvNVT(J/K)
Block1 194.60300299974377936 8.9851716460128639965e-20 -9.1571012123418946715e-22 4.0559249882541127923e-20 3.9643539761306941465e-20 8.8804391101603174865e-09 -0.00031327889612905762858 -0.00025695573859646557262 8.9449041471572000357e-20 -9.0707235846768549569e-07 762.40081898044013542 3.9372639753346337021e-20 -2.004105501013254321e-06 763.30297822591660406 1.296455828591829983e-20
Block2 194.77939956412126321 8.6081045131595012276e-20 2.4384394981110897629e-22 4.0598012623972741022e-20 4.0841856573783848493e-20 8.0382065498503277e-09 8.6108423610378989122e-05 -5.4114098380444426793e-05 8.6047417511430875463e-20 -7.7699887306759775299e-07 799.34406200384910335 4.0828575728735814688e-20 -1.7628182098367437932e-06 799.31788518215876138 1.3587531308050744901e-20
Block3 194.55176937011370342 8.9389778067948405134e-20 -6.665204396067707913e-22 4.0533988873796667772e-20 3.9867468434189894724e-20 8.3064793668161879518e-09 -0.00014815195245963192817 -0.00018780636638468926783 8.9293566462176871572e-20 -8.4461851887210424844e-07 787.05984746633475879 3.9712859949100992165e-20 -1.929997367820128668e-06 788.16593352506424708 1.3618761945792378214e-20
Block4 194.72422208630078444 8.0136060194368769943e-20 -2.3893323792460458147e-21 4.0562984150063091237e-20 3.8173651770817046927e-20 8.8999860771068227988e-09 -0.00025562391751324502892 -0.00031597083015698698835 7.9868679025525734646e-20 -9.9023067241214627003e-07 760.88862275736209995 3.776512377132326265e-20 -2.1363139317500341377e-06 763.71574657552616827 1.3573648244727280243e-20
Block5 194.75316798300647747 8.6588442037976003834e-20 1.7609313888864874545e-21 4.0542095190734524038e-20 4.2303026579621012997e-20 9.5429808203330725408e-09 0.00012095244541005811009 9.8913676707518505228e-05 8.6532664712254882912e-20 -7.5798436583722305528e-07 733.76270316204363553 4.2265723810542105308e-20 -1.5704443140779533465e-06 733.8499580779033522 1.2968125998816607878e-20
Ave_blocks 194.68231240065719589 8.640940837840336623e-20 -3.9335752027788190965e-22 4.0559266144221625584e-20 4.0165908623943747718e-20 8.7336183848533450338e-09 -0.00010199877941629949458 -0.00014318667136221352432 8.6238273836592063361e-20 -8.5538095773135138566e-07 768.69121087400594661 3.9988984602609699959e-20 -1.8807358648996228109e-06 769.67050031731389481 1.3342525156661063417e-20
Stdev_blocks 0.088920544878023560775 3.4706443588219921245e-21 1.3695526478005335631e-21 2.213095374707414448e-23 1.3678597831440398562e-21 5.2351646533095779384e-10 0.00017633017588463022521 0.00014922143623939958419 3.4738644767888752086e-21 8.5559480899082512578e-08 22.792341499401103988 1.5026734491848305963e-21 1.9654634615104651799e-07 22.716356023366728323 3.0750165674328997914e-22






