LAMMPS (28 Oct 2012)
Scanning data file ...
Reading data file ...
  orthogonal box = (0 0 0) to (100 100 100)
  2 by 2 by 2 MPI processor grid
  512 atoms
Finding 1-2 1-3 1-4 neighbors ...
  0 = max # of 1-2 neighbors
  0 = max # of 1-3 neighbors
  0 = max # of 1-4 neighbors
  1 = max # of special neighbors
WARNING: Resetting reneighboring criteria during minimization (min.cpp:173)
Setting up minimization ...
Memory usage per processor = 4.05499 Mbytes
Step Temp E_pair E_mol TotEng Press 
       0       440.15    1409.7233            0    2080.1572    443.16352 
     701       440.15   -217.27527            0    453.15855    30.418622 
Loop time of 0.0550914 on 8 procs for 701 steps with 512 atoms

Minimization stats:
  Stopping criterion = energy tolerance
  Energy initial, next-to-last, final = 
         1409.72334813     -217.256630745     -217.275265106
  Force two-norm initial, final = 5034.49 0.337455
  Force max component initial, final = 2457.89 0.147661
  Final line search alpha, max atom move = 0.254892 0.0376377
  Iterations, force evaluations = 701 710

Pair  time (%) = 0.00896841 (16.2791)
Bond  time (%) = 5.99921e-05 (0.108895)
Neigh time (%) = 0.00313842 (5.69675)
Comm  time (%) = 0.0223318 (40.5359)
Outpt time (%) = 0 (0)
Other time (%) = 0.0205928 (37.3793)

Nlocal:    64 ave 74 max 52 min
Histogram: 1 0 0 1 1 2 0 2 0 1
Nghost:    235.125 ave 266 max 224 min
Histogram: 4 0 2 0 0 1 0 0 0 1
Neighs:    316.25 ave 371 max 226 min
Histogram: 1 0 0 1 1 1 0 1 0 3

Total # of neighbors = 2530
Ave neighs/atom = 4.94141
Ave special neighs/atom = 0
Neighbor list builds = 60
Dangerous builds = 0
Setting up run ...
Memory usage per processor = 3.36354 Mbytes
Step Temp E_pair E_mol TotEng Press Volume 
     701       440.15   -217.27527            0    453.15855    30.418622      1000000 
 5000701    443.14005   -403.25373            0    271.73451    589.40332    59754.362 
Loop time of 1447.99 on 8 procs for 5000000 steps with 512 atoms

Pair  time (%) = 772.856 (53.3745)
Bond  time (%) = 0.453859 (0.0313441)
Neigh time (%) = 34.4062 (2.37614)
Comm  time (%) = 479.795 (33.1352)
Outpt time (%) = 4.05312e-05 (2.79914e-06)
Other time (%) = 160.478 (11.0828)

Nlocal:    64 ave 70 max 56 min
Histogram: 1 0 0 1 1 1 1 1 1 1
Nghost:    1240.88 ave 1258 max 1217 min
Histogram: 1 0 0 1 0 2 2 0 0 2
Neighs:    5509.75 ave 6219 max 5037 min
Histogram: 2 1 0 1 2 0 0 1 0 1

Total # of neighbors = 44078
Ave neighs/atom = 86.0898
Ave special neighs/atom = 0
Neighbor list builds = 97055
Dangerous builds = 12
Setting up run ...
Memory usage per processor = 3.96719 Mbytes
Step Press Volume Temp PotEng KinEng TotEng Enthalpy E_vdwl E_coul E_tail E_long E_bond E_angle E_dihed E_impro E_mol 
10000000    589.40332    59754.362    443.14005   -403.25373    674.98823    271.73451    785.37361   -403.25373            0   -8.7640387            0            0            0            0            0            0 
10001000    617.89829    62465.546    433.72885   -367.50381    660.65315    293.14933    856.05214   -367.50381            0   -8.3836544            0            0            0            0            0            0 
10002000    781.66993    58793.352    463.42781   -383.39945    705.89043    322.49097    992.72661   -383.39945            0   -8.9072919            0            0            0            0            0            0 
10003000    699.70997    60134.622    441.59652   -387.21096    672.63715    285.42619    899.07308   -387.21096            0   -8.7086196            0            0            0            0            0            0 
10004000    752.13513    58846.996    415.08231   -386.87263    632.25085    245.37823    890.87795   -386.87263            0   -8.8991721            0            0            0            0            0            0 
10005000    658.79828    61618.222    419.74994    -381.6259    639.36056    257.73466     849.7562    -381.6259            0   -8.4989396            0            0            0            0            0            0 
10006000     735.6087    60382.869    433.60591   -382.03856    660.46589    278.42734     926.2207   -382.03856            0   -8.6728165            0            0            0            0            0            0 
10007000    740.42729    60124.591     447.7745   -381.47068     682.0474    300.57672    949.82445   -381.47068            0   -8.7100725            0            0            0            0            0            0 
10008000    624.28023     61950.59    415.99689   -377.20339    633.64395    256.44056    820.46888   -377.20339            0   -8.4533423            0            0            0            0            0            0 
10009000    626.00256    60009.991    424.47535   -392.76217    646.55828    253.79611    801.66364   -392.76217            0   -8.7267059            0            0            0            0            0            0 
10010000    702.97359    63254.142    442.84935   -360.25023    674.54545    314.29522     962.7861   -360.25023            0   -8.2791344            0            0            0            0            0            0 
10011000     554.6942     61023.36     455.9385   -399.59256    694.48276     294.8902    788.54757   -399.59256            0   -8.5817881            0            0            0            0            0            0 
10012000    667.53219    61699.793    436.52307   -369.81382     664.9093    295.09547    895.75976   -369.81382            0   -8.4877035            0            0            0            0            0            0 
10013000    681.48221    61683.033    419.92094   -377.45601    639.62103    262.16502    875.21535   -377.45601            0   -8.4900097            0            0            0            0            0            0 
10014000    728.45443    59186.633    420.38567   -382.92621     640.3289    257.40268     886.1873   -382.92621            0   -8.8481051            0            0            0            0            0            0 
10015000    639.23441     64926.45    463.11295   -359.92716    705.41083    345.48367    950.76557   -359.92716            0   -8.0658892            0            0            0            0            0            0 
10016000    684.84935    58483.876    425.16792   -400.53457     647.6132    247.07863    831.20537   -400.53457            0   -8.9544261            0            0            0            0            0            0 
10017000    678.19274     60783.88    455.49448   -381.12425    693.80642    312.68217    913.88005   -381.12425            0   -8.6155992            0            0            0            0            0            0 
10018000    607.74663    62584.937    442.18824   -368.15121    673.53844    305.38723    860.10013   -368.15121            0   -8.3676611            0            0            0            0            0            0 
10019000    578.39544    61365.428    436.99075   -385.61167    665.62166    280.00999    797.64605   -385.61167            0   -8.5339508            0            0            0            0            0            0 
10020000    638.30061    61795.575    455.72081   -379.20684    694.15117    314.94433    890.19684   -379.20684            0   -8.4745476            0            0            0            0            0            0 
10021000    608.85593    60817.195    440.86559    -393.4211    671.52379    278.10269    818.13135    -393.4211            0   -8.6108797            0            0            0            0            0            0 
10022000    660.59344    60829.285    424.16996   -378.03219    646.09312    268.06093    854.09498   -378.03219            0   -8.6091682            0            0            0            0            0            0 
10023000    560.66428    62882.722    437.07632   -369.34785    665.75201    296.40416    810.57816   -369.34785            0   -8.3280356            0            0            0            0            0            0 
10024000    642.43514    61275.027    466.00179    -384.9384    709.81109    324.87269     898.9742    -384.9384            0   -8.5465413            0            0            0            0            0            0 
10025000    661.57724    60183.155    431.51662    -379.6176    657.28349    277.66589    858.33857    -379.6176            0   -8.7015968            0            0            0            0            0            0 
10026000    613.80279    62006.422    430.13017   -381.80891    655.17166    273.36275    828.42465   -381.80891            0   -8.4457308            0            0            0            0            0            0 
10027000    684.14074    60424.357    425.19768   -378.24896    647.65852    269.40957    872.29305   -378.24896            0   -8.6668616            0            0            0            0            0            0 
10028000     727.7613    60717.721    467.92242   -374.82705    712.73659    337.90954    982.34631   -374.82705            0   -8.6249869            0            0            0            0            0            0 
10029000    740.99299    62465.103    442.87492   -361.99936     674.5844    312.58504    987.62184   -361.99936            0   -8.3837137            0            0            0            0            0            0 
10030000    868.22437    58108.215    454.36855   -381.33697    692.09142    310.75445    1046.5301   -381.33697            0   -9.0123151            0            0            0            0            0            0 
10031000    568.33371    63917.587    403.20123   -360.68565    614.15366    253.46802    783.25304   -360.68565            0   -8.1931996            0            0            0            0            0            0 
10032000    598.84435    61274.308    441.03283    -385.1749    671.77854    286.60364    821.74469    -385.1749            0   -8.5466415            0            0            0            0            0            0 
10033000    715.07615    61408.986    469.03775   -382.41728    714.43546    332.01818    972.43113   -382.41728            0   -8.5278976            0            0            0            0            0            0 
10034000    823.35256    61098.609    453.33616   -358.97567    690.51888    331.54321    1065.2002   -358.97567            0   -8.5712188            0            0            0            0            0            0 
10035000    738.48192    58995.196    421.40863    -382.9645    641.88708    258.92257    894.30091    -382.9645            0   -8.8768167            0            0            0            0            0            0 
10036000    750.54985    60007.334    426.46297   -367.86454     649.5858    281.72126    938.56153   -367.86454            0   -8.7270923            0            0            0            0            0            0 
10037000     692.3192    62347.427    437.20625   -363.84326    665.94992    302.10666    931.61401   -363.84326            0   -8.3995374            0            0            0            0            0            0 
10038000    602.16115    59461.456    436.89675   -403.84734    665.47848    261.63114    783.81586   -403.84734            0   -8.8072103            0            0            0            0            0            0 
10039000     778.8964    60789.973     450.8384   -369.11677    686.71431    317.59755    1008.1355   -369.11677            0   -8.6147356            0            0            0            0            0            0 
10040000    752.08319    59015.486    458.90662   -394.27459    699.00378    304.72919    952.03241   -394.27459            0   -8.8737648            0            0            0            0            0            0 
10041000    627.75943    61239.722    427.59685   -379.65519    651.31294    271.65774    832.32132   -379.65519            0   -8.5514684            0            0            0            0            0            0 
10042000    654.72292      58444.2    438.24925   -408.40418    667.53861    259.13442    817.18666   -408.40418            0   -8.9605049            0            0            0            0            0            0 
10043000    615.29166    60846.657    430.56801    -384.1135    655.83858    271.72508    817.72633    -384.1135            0   -8.6067102            0            0            0            0            0            0 
10044000    710.88982    60535.848    459.10189   -389.44825    699.30121    309.85296    937.46434   -389.44825            0   -8.6508997            0            0            0            0            0            0 
10045000    725.33322     61311.32    446.08793   -366.71432    679.47843    312.76411    961.33004   -366.71432            0   -8.5414821            0            0            0            0            0            0 
10046000    709.06438    62551.526    444.73642   -361.26545    677.41981    316.15436    962.99824   -361.26545            0   -8.3721305            0            0            0            0            0            0 
10047000    698.61981    61665.115    414.69223    -366.8255    631.65669    264.83119    893.11567    -366.8255            0   -8.4924765            0            0            0            0            0            0 
10048000    690.92105    59859.872    443.62616   -392.12711    675.72868    283.60157    886.77207   -392.12711            0   -8.7485912            0            0            0            0            0            0 
10049000    637.62158    60027.198    462.73109   -396.14983     704.8292    308.67937    866.87568   -396.14983            0   -8.7242044            0            0            0            0            0            0 
10050000    745.26299     61298.23    449.93669   -376.18879    685.34084    309.15205    975.39615   -376.18879            0   -8.5433062            0            0            0            0            0            0 
10051000    744.18527    60240.339    457.63675   -379.05034    697.06953    318.01919    971.81836   -379.05034            0   -8.6933367            0            0            0            0            0            0 
10052000    717.09704    58120.205    452.75802   -399.62178    689.63827    290.01649    897.84486   -399.62178            0   -9.0104558            0            0            0            0            0            0 
10053000     625.8758    63600.432    425.57564   -360.75669    648.23423    287.47754     868.0068   -360.75669            0   -8.2340564            0            0            0            0            0            0 
10054000    889.38921    58457.035    460.21293   -373.45321    700.99355    327.54033    1085.7766   -373.45321            0   -8.9585376            0            0            0            0            0            0 
10055000    634.52187    61482.758    439.34608   -371.51937    669.20928    297.68991    866.64217   -371.51937            0   -8.5176652            0            0            0            0            0            0 
10056000    621.92896    60405.063    439.09467   -388.21356    668.82634    280.61279    828.49855   -388.21356            0     -8.66963            0            0            0            0            0            0 
10057000    788.59211    58905.255     465.9325   -377.74495    709.70556     331.9606    1009.4186   -377.74495            0   -8.8903705            0            0            0            0            0            0 
10058000    669.62387    61136.154    440.24623   -370.08734    670.58039    300.49305    897.53512   -370.08734            0    -8.565955            0            0            0            0            0            0 
10059000    713.93075    59242.245    417.35015   -390.79011    635.70522    244.91511    861.74227   -390.79011            0   -8.8397991            0            0            0            0            0            0 
10060000    703.09513    61788.604    464.65791   -374.91668    707.76411    332.84743    966.42292   -374.91668            0   -8.4755038            0            0            0            0            0            0 
10061000    625.88723    61277.153    442.43577   -382.51789    673.91548    291.39759    850.73074   -382.51789            0   -8.5462447            0            0            0            0            0            0 
10062000    767.37726    59300.549    442.72963   -381.30801    674.36309    293.05508    956.71185   -381.30801            0   -8.8311079            0            0            0            0            0            0 
10063000     686.6866    61921.886    443.93842   -375.16437    676.20431    301.03995    921.16408   -375.16437            0    -8.457261            0            0            0            0            0            0 
10064000    735.58099    57892.077    424.58831   -396.44451    646.73034    250.28583    871.33433   -396.44451            0   -9.0459624            0            0            0            0            0            0 
10065000    637.79494    62825.486    467.26171   -380.21841     711.7302    331.51179    915.88839   -380.21841            0   -8.3356227            0            0            0            0            0            0 
10066000    683.06959    59391.775    440.81767   -391.05988     671.4508    280.39092    872.04403   -391.05988            0   -8.8175432            0            0            0            0            0            0 
10067000    710.29056    60591.752    421.82659   -376.70504     642.5237    265.81866    893.48009   -376.70504            0    -8.642918            0            0            0            0            0            0 
10068000    753.80812    60205.099    465.44821   -380.63925    708.96789    328.32864     990.1945   -380.63925            0    -8.698425            0            0            0            0            0            0 
10069000    799.32886    60816.913    473.09023   -367.04451    720.60818    353.56367    1062.5302   -367.04451            0   -8.6109195            0            0            0            0            0            0 
10070000    700.08544    60103.102    433.76107   -384.24967    660.70223    276.45255    890.10691   -384.24967            0   -8.7131866            0            0            0            0            0            0 
10071000     690.9112    59390.261    446.62133   -394.36158    680.29091    285.92933    884.35933   -394.36158            0   -8.8177681            0            0            0            0            0            0 
10072000    703.18671     60594.84    436.86672   -383.10672    665.43274    282.32602    903.74167   -383.10672            0   -8.6424775            0            0            0            0            0            0 
10073000     598.3286     59884.69    433.10541   -397.66039    659.70353    262.04314    784.59748   -397.66039            0   -8.7449654            0            0            0            0            0            0 
10074000    652.44604    59276.868    426.24509   -396.27883    649.25393    252.97511     817.0097   -396.27883            0   -8.8346359            0            0            0            0            0            0 
10075000    699.73525    61812.687    430.66053   -371.95548    655.97951    284.02403    914.81762   -371.95548            0   -8.4722016            0            0            0            0            0            0 
10076000    746.43774    59746.019    428.75904   -382.12515    653.08317    270.95802     921.3549   -382.12515            0   -8.7652626            0            0            0            0            0            0 
10077000    829.84007    61365.727    450.73416   -347.27834    686.55554     339.2772    1081.9477   -347.27834            0   -8.5339093            0            0            0            0            0            0 
10078000    585.22424    61452.266     446.5404   -393.60613    680.16763    286.56151    811.05016   -393.60613            0   -8.5218915            0            0            0            0            0            0 
10079000    582.33084    60390.737    438.10806   -405.61248    667.32353    261.71106    774.59134   -405.61248            0   -8.6716866            0            0            0            0            0            0 
10080000    604.86166    59110.603    418.99233   -402.20027    638.20658    236.00631     757.4379   -402.20027            0   -8.8594857            0            0            0            0            0            0 
10081000    552.36612    62782.011    430.16077   -383.02088    655.21828    272.19739    777.95002   -383.02088            0   -8.3413949            0            0            0            0            0            0 
10082000    637.14675    60358.504    442.68316   -394.91968    674.29231    279.37263    840.23181   -394.91968            0   -8.6763176            0            0            0            0            0            0 
10083000    742.35172    61215.022    440.63653    -369.9307    671.17489    301.24419    963.98486    -369.9307            0   -8.5549188            0            0            0            0            0            0 
10084000    648.13034    60483.212    418.93329   -384.52738    638.11664    253.58926     825.2957   -384.52738            0   -8.6584282            0            0            0            0            0            0 
10085000    688.45007    60143.363    460.85154   -387.81697    701.96627     314.1493      918.009   -387.81697            0   -8.7073539            0            0            0            0            0            0 
10086000    808.31531    59506.603    446.36385   -380.79054    679.89871    299.10818    1000.5988   -380.79054            0   -8.8005284            0            0            0            0            0            0 
10087000     552.8123    63600.237    447.64799   -375.46516    681.85471    306.38954     819.1474   -375.46516            0   -8.2340817            0            0            0            0            0            0 
10088000    806.66806    57252.032    464.36042   -401.88694    707.31098    305.42404    978.96135   -401.88694            0   -9.1470909            0            0            0            0            0            0 
10089000    619.76676    63785.875    445.03246   -363.67152    677.87074    314.19922    890.73821   -363.67152            0   -8.2101178            0            0            0            0            0            0 
10090000    637.73725    60369.184    440.55405   -395.21414    671.04925    275.83512    837.31343   -395.21414            0   -8.6747826            0            0            0            0            0            0 
10091000    688.33649     59937.83    436.14994   -378.57184    664.34094     285.7691     887.4659   -378.57184            0   -8.7372122            0            0            0            0            0            0 
10092000      551.931    61015.188    444.19067   -395.01675    676.58853    281.57178    772.70424   -395.01675            0   -8.5829374            0            0            0            0            0            0 
10093000     610.1777    61218.913    422.41583   -383.17435    643.42123    260.24689    805.02272   -383.17435            0   -8.5543752            0            0            0            0            0            0 
10094000    676.64173    58206.099    449.75186     -400.331    685.05931    284.72831     859.1134     -400.331            0   -8.9971593            0            0            0            0            0            0 
10095000    674.48519    59630.131     410.4097   -394.12652    625.13356    231.00704    817.56924   -394.12652            0   -8.7822974            0            0            0            0            0            0 
10096000    815.58984    61275.746    444.71711     -360.813     677.3904     316.5774    1045.4243     -360.813            0    -8.546441            0            0            0            0            0            0 
10097000    703.56162    59362.689    452.67346   -389.68375    689.50948    299.82573    908.92993   -389.68375            0   -8.8218636            0            0            0            0            0            0 
10098000    636.13449    60579.561    428.93254   -379.48206    653.34745    273.86539    835.88433   -379.48206            0   -8.6446574            0            0            0            0            0            0 
10099000    728.05903    62955.659    467.58376   -353.39259    712.22075    358.82816     1027.291   -353.39259            0   -8.3183872            0            0            0            0            0            0 
10100000    773.85808    58073.722    468.75029   -395.15038     713.9976    318.84722    974.26297   -395.15038            0    -9.017668            0            0            0            0            0            0 
10101000     687.8922    61319.882    437.53172   -372.60289    666.44566    293.84276    909.01622   -372.60289            0   -8.5402895            0            0            0            0            0            0 
10102000    659.47296    59319.353    449.16061   -404.29561    684.15872    279.86311    850.38102   -404.29561            0   -8.8283085            0            0            0            0            0            0 
10103000    729.85586    61992.847    440.71464   -362.70801    671.29386    308.58585    968.45005   -362.70801            0   -8.4475802            0            0            0            0            0            0 
10104000    641.67352    61171.042    408.42112   -387.63742    622.10458    234.46716    806.91495   -387.63742            0   -8.5610696            0            0            0            0            0            0 
10105000    688.18374    59319.393    435.33665   -391.77514    663.10214      271.327    866.68336   -391.77514            0   -8.8283025            0            0            0            0            0            0 
10106000    658.26899    58870.522    435.04247   -397.95616    662.65405    264.69789    829.86538   -397.95616            0   -8.8956158            0            0            0            0            0            0 
10107000    700.91057    61163.099     462.4389   -370.97686    704.38413    333.40728    958.62025   -370.97686            0   -8.5621814            0            0            0            0            0            0 
10108000    763.12143    58505.885      445.719   -389.71861    678.91647    289.19786    940.32994   -389.71861            0   -8.9510575            0            0            0            0            0            0 
10109000    621.02142    58077.635     445.6834   -412.78846    678.86226     266.0738    792.08063   -412.78846            0   -9.0170605            0            0            0            0            0            0 
10110000    657.11309    63996.371    445.05428      -360.85    677.90398    317.05398     930.3517      -360.85            0   -8.1831132            0            0            0            0            0            0 
10111000    677.70481    61994.118    441.86419   -367.34653    673.04485    305.69832    918.42522   -367.34653            0    -8.447407            0            0            0            0            0            0 
10112000    687.01042    58665.888    444.28127   -403.99408    676.72654    272.73246    860.52607   -403.99408            0   -8.9266449            0            0            0            0            0            0 
10113000    632.39361    63038.228    436.68736   -363.79208    665.15954    301.36746     882.7572   -363.79208            0   -8.3074915            0            0            0            0            0            0 
10114000     800.7659    58810.427    445.15209   -381.93153    678.05297    296.12143    982.93013   -381.93153            0   -8.9047058            0            0            0            0            0            0 
10115000    755.55508    59351.368    433.71784    -390.7078    660.63638    269.92858    923.92106    -390.7078            0   -8.8235463            0            0            0            0            0            0 
10116000    650.57999    59972.573    394.32137   -386.70618    600.62792    213.92173    782.94401   -386.70618            0   -8.7321507            0            0            0            0            0            0 
10117000     680.9079    60348.547    435.79252   -378.77169    663.79653    285.02484    884.30664   -378.77169            0    -8.677749            0            0            0            0            0            0 
10118000    595.63875    59395.169    413.02465   -401.44854    629.11665    227.66811    743.62089   -401.44854            0   -8.8170394            0            0            0            0            0            0 
10119000    682.01536    61299.162    462.06185   -377.05325     703.8098    326.75655    936.46833   -377.05325            0   -8.5431762            0            0            0            0            0            0 
10120000    738.44134    61610.559    478.11859   -374.84602    728.26733    353.42132    1016.9307   -374.84602            0   -8.4999966            0            0            0            0            0            0 
10121000    714.05856    59357.822    473.62508   -396.56736    721.42285    324.85549    942.99667   -396.56736            0    -8.822587            0            0            0            0            0            0 
10122000    731.80564    61706.573    432.36537    -361.5784     658.5763    296.99791    955.56961    -361.5784            0   -8.4867709            0            0            0            0            0            0 
10123000    655.30618    59559.642    418.02144   -383.68474    636.72772    253.04298    822.25261   -383.68474            0   -8.7926913            0            0            0            0            0            0 
10124000    786.96227    57794.089    420.14383   -391.24398    639.96054    248.71656    912.02149   -391.24398            0   -9.0612994            0            0            0            0            0            0 
10125000    701.91787    59748.961    473.57096   -400.17278    721.34041    321.16764    932.80295   -400.17278            0   -8.7648309            0            0            0            0            0            0 
10126000    752.62194    58942.356    437.03107   -387.53211    665.68307    278.15096    925.11518   -387.53211            0   -8.8847745            0            0            0            0            0            0 
10127000    646.64437    62931.009    446.74199   -369.59415    680.47468    310.88053    904.36052   -369.59415            0   -8.3216455            0            0            0            0            0            0 
10128000    826.64252    60030.531      417.547   -365.30125    636.00506    270.70381    994.41588   -365.30125            0     -8.72372            0            0            0            0            0            0 
10129000    639.56997      61803.5    438.48813   -384.54371    667.90247    283.35876    859.82918   -384.54371            0   -8.4734609            0            0            0            0            0            0 
10130000    909.56982    56963.469    437.30598   -386.68836    666.10181    279.41346     1035.042   -386.68836            0   -9.1934279            0            0            0            0            0            0 
10131000     553.7667    64847.182    422.28599   -366.09893    643.22346    277.12453    800.83811   -366.09893            0   -8.0757487            0            0            0            0            0            0 
10132000    604.55121    61633.246    436.65485   -386.38933    665.11002    278.72069    822.12619   -386.38933            0   -8.4968678            0            0            0            0            0            0 
10133000    648.70794    61606.793    468.86509   -373.89091    714.17247    340.28156     923.1274   -373.89091            0   -8.5005163            0            0            0            0            0            0 
10134000    611.51482    59984.914    438.93535       -396.2    668.58366    272.38367    807.34811       -396.2            0   -8.7303541            0            0            0            0            0            0 
10135000    640.59893    60824.798    410.94101   -385.46548    625.94285    240.47737    808.73173   -385.46548            0   -8.6098033            0            0            0            0            0            0 
10136000    604.28266    60675.131    421.15148   -385.00482    641.49538    256.49056    791.21094   -385.00482            0   -8.6310411            0            0            0            0            0            0 
10137000    613.04929    62234.026    438.15271   -373.34516    667.39154    294.04638    850.46183   -373.34516            0   -8.4148428            0            0            0            0            0            0 
10138000    751.22592    57788.331    451.08153    -399.8543    687.08465    287.23036    920.35119    -399.8543            0   -9.0622023            0            0            0            0            0            0 
10139000    544.57199    63246.606    426.72403   -376.17726    649.98345    273.80619    776.11225   -376.17726            0   -8.2801209            0            0            0            0            0            0 
10140000    658.57585    61030.619    421.24217   -379.40635    641.63352    262.22717    848.40511   -379.40635            0   -8.5807674            0            0            0            0            0            0 
10141000    758.90664    58794.821     428.8096   -382.35771    653.16019    270.80248     921.5362   -382.35771            0   -8.9070693            0            0            0            0            0            0 
10142000    815.75487    58948.894    439.56589   -378.75633     669.5441    290.78777     992.0997   -378.75633            0   -8.8837891            0            0            0            0            0            0 
10143000    799.97874    59986.275    408.97502   -369.02446    622.94827     253.9238    953.77584   -369.02446            0   -8.7301561            0            0            0            0            0            0 
10144000    689.23657    63050.441    430.64543   -358.55378    655.95651    297.40272    931.17368   -358.55378            0   -8.3058823            0            0            0            0            0            0 
10145000    645.96652    58851.855    422.64458   -391.76739    643.76966    252.00227    806.43142   -391.76739            0   -8.8984373            0            0            0            0            0            0 
10146000    567.45309    61094.935    421.53791   -393.57184    642.08398    248.51215    754.11679   -393.57184            0   -8.5717342            0            0            0            0            0            0 
10147000    754.30611    61271.379    425.94131   -355.25391    648.79122    293.53731    967.57032   -355.25391            0   -8.5470501            0            0            0            0            0            0 
10148000    742.87592    58527.529    468.06383   -390.70431    712.95199    322.24768     956.3398   -390.70431            0   -8.9477474            0            0            0            0            0            0 
10149000    753.50256    59910.871    446.95997   -383.17925    680.80672    297.62747    955.99174   -383.17925            0    -8.741144            0            0            0            0            0            0 
10150000    684.06165     60751.38     452.1291   -373.21993     688.6803    315.46037    921.53664   -373.21993            0   -8.6202082            0            0            0            0            0            0 
10151000    701.55136    61134.456    408.94275   -369.23416    622.89911    253.66496    879.15646   -369.23416            0   -8.5661929            0            0            0            0            0            0 
10152000    719.14135    59675.808    413.58273   -384.92392    629.96671    245.04279    870.91903   -384.92392            0   -8.7755752            0            0            0            0            0            0 
10153000    703.10129    60254.106    414.67988   -379.99965    631.63788    251.63823     869.4845   -379.99965            0   -8.6913504            0            0            0            0            0            0 
10154000    738.51452    60127.603    439.27979   -376.56088    669.10832    292.54743    940.15038   -376.56088            0   -8.7096362            0            0            0            0            0            0 
10155000    731.28049    59326.055    458.06305    -388.0319    697.71885    309.68695     942.3979    -388.0319            0   -8.8273111            0            0            0            0            0            0 
10156000    733.45464    61779.805    463.92441   -367.93389    706.64686    338.71297      999.552   -367.93389            0   -8.4767109            0            0            0            0            0            0 
10157000    728.71956    59221.656    435.77617   -388.78115    663.77162    274.99046    904.37615   -388.78115            0   -8.8428724            0            0            0            0            0            0 
10158000    625.07222    63325.513    431.86063   -359.65364    657.80749    298.15385    875.43158   -359.65364            0   -8.2698035            0            0            0            0            0            0 
10159000    739.33918    59723.863    437.75757   -383.33722    666.78968    283.45246    927.42522   -383.33722            0   -8.7685143            0            0            0            0            0            0 
10160000    579.05662    60848.503    444.01716   -390.80224    676.32425      285.522    799.38438   -390.80224            0   -8.6064491            0            0            0            0            0            0 
10161000    639.54789    61910.222    451.38954    -384.2571    687.55382    303.29672    880.74265    -384.2571            0   -8.4588542            0            0            0            0            0            0 
10162000    546.02734    61821.161    435.80217   -395.91593    663.81122    267.89529    760.19257   -395.91593            0   -8.4710403            0            0            0            0            0            0 
10163000    718.23906    58990.729    418.31409   -388.32005    637.17349    248.85344    866.76835   -388.32005            0    -8.877489            0            0            0            0            0            0 
10164000    606.98622    60808.643    443.95453   -391.76078    676.22885    284.46807    822.76268   -391.76078            0   -8.6120906            0            0            0            0            0            0 
10165000    559.60144    60790.332    438.27699   -397.95362    667.58085    269.62723    765.75007   -397.95362            0   -8.6146848            0            0            0            0            0            0 
10166000    615.77576    62317.699    437.42062    -381.0495    666.27643    285.22693     844.8684    -381.0495            0   -8.4035443            0            0            0            0            0            0 
10167000    709.77106      60090.5    435.63724   -372.07329       663.56    291.48672    913.50048   -372.07329            0    -8.715014            0            0            0            0            0            0 
10168000    698.67122    61175.047    446.62286   -371.69962    680.29323    308.59361    931.93081   -371.69962            0   -8.5605091            0            0            0            0            0            0 
10169000    820.26189    62347.017     470.5993   -353.28856    716.81401    363.52545    1109.3628   -353.28856            0   -8.3995926            0            0            0            0            0            0 
10170000    907.40206    57184.786    472.67241   -391.55139    719.97176    328.42036    1085.1768   -391.55139            0   -9.1578474            0            0            0            0            0            0 
10171000    626.42992    63510.907    439.15307   -365.68804    668.91529    303.22725     883.4526   -365.68804            0   -8.2456631            0            0            0            0            0            0 
10172000    726.32006    61567.729    438.74728   -365.91825    668.29719    302.37894    954.54331   -365.91825            0   -8.5059097            0            0            0            0            0            0 
10173000    548.90985    61665.671    454.54991   -393.28227    692.36766    299.08539    792.73679   -393.28227            0      -8.4924            0            0            0            0            0            0 
10174000     773.0776    58076.931    442.58613   -388.58183     674.1445    285.56267    940.35357   -388.58183            0   -9.0171698            0            0            0            0            0            0 
10175000    764.57757    61411.301    433.81757   -360.16362     660.7883    300.62468    985.39627   -360.16362            0   -8.5275762            0            0            0            0            0            0 
10176000    690.74935    62602.671    482.41196   -368.89314    734.80696    365.91383    996.56505   -368.89314            0   -8.3652907            0            0            0            0            0            0 
10177000    680.13848     59051.62    428.36186   -394.81843    652.47819    257.65975    843.39999   -394.81843            0   -8.8683349            0            0            0            0            0            0 
10178000    630.10013    63176.838    460.78879   -368.48525    701.87069    333.38544     913.9404   -368.48525            0   -8.2892649            0            0            0            0            0            0 
10179000    555.30838     59025.26    427.12237   -408.83239    650.59021    241.75782    719.77997   -408.83239            0   -8.8722954            0            0            0            0            0            0 
10180000    588.94122    60920.939    450.62181   -386.58456    686.38441    299.79985    823.05611   -386.58456            0   -8.5962159            0            0            0            0            0            0 
10181000    660.44103     60840.53    475.53517    -385.6665    724.33229    338.66579    924.67295    -385.6665            0    -8.607577            0            0            0            0            0            0 
10182000    676.06816    59283.977    454.09686   -391.88326    691.67758    299.79431    884.32014   -391.88326            0   -8.8335765            0            0            0            0            0            0 
10183000    709.95287    58267.035    433.22787   -395.74125    659.89007    264.14882    867.44188   -395.74125            0     -8.98775            0            0            0            0            0            0 
10184000    518.77535    63767.879    480.38674   -378.82759    731.72217    352.89458       835.35   -378.82759            0   -8.2124348            0            0            0            0            0            0 
10185000    658.00601    60829.145    414.87045   -376.77439    631.92815    255.15376    838.89108   -376.77439            0    -8.609188            0            0            0            0            0            0 
10186000    723.73044    61005.846     452.8094   -379.47922    689.71653    310.23731    954.14585   -379.47922            0   -8.5842518            0            0            0            0            0            0 
10187000    702.97924     60063.59    430.39618   -378.52348    655.57685    277.05337    892.83919   -378.52348            0   -8.7189184            0            0            0            0            0            0 
10188000    604.74972    65234.321    432.46882   -344.98505    658.73389    313.74883      889.093   -344.98505            0   -8.0278224            0            0            0            0            0            0 
10189000    825.88957    58762.135    475.76468    -386.4053    724.68187    338.27657    1046.0519    -386.4053            0   -8.9120238            0            0            0            0            0            0 
10190000    692.11635    60144.373    466.66788   -391.41345    710.82568    319.41224    926.49794   -391.41345            0   -8.7072076            0            0            0            0            0            0 
10191000    679.14329    59816.803    464.57526   -396.48863    707.63822    311.14959    903.61159   -396.48863            0   -8.7548903            0            0            0            0            0            0 
10192000    1015.8599    56559.626    466.29264   -386.63194    710.25412    323.62218    1161.5686   -386.63194            0   -9.2590702            0            0            0            0            0            0 
10193000    748.00376     59800.66    445.33106   -386.60491    678.32557    291.72066    944.07815   -386.60491            0   -8.7572535            0            0            0            0            0            0 
10194000    742.92249    61342.743    462.97152   -372.47951    705.19542    332.71591    997.34997   -372.47951            0   -8.5371067            0            0            0            0            0            0 
10195000    651.56983    63744.907    441.10579   -355.87844    671.88966    316.01122    921.74577   -355.87844            0   -8.2153942            0            0            0            0            0            0 
10196000    757.45669    58541.824    452.80123   -393.71755    689.70409    295.98654     942.6822   -393.71755            0   -8.9455625            0            0            0            0            0            0 
10197000    724.16505    59441.153    438.76124   -379.41693    668.31846    288.90152    916.67169   -379.41693            0   -8.8102185            0            0            0            0            0            0 
10198000    688.11472    59868.681    435.47993   -383.41058    663.32039    279.90981    880.71882   -383.41058            0   -8.7473038            0            0            0            0            0            0 
10199000    627.28005    61552.399    418.86429    -376.6144    638.01155    261.39715    824.49302    -376.6144            0   -8.5080282            0            0            0            0            0            0 
10200000    783.16163    58534.566    456.37395   -385.73053    695.14603    309.41549    977.97442   -385.73053            0   -8.9466717            0            0            0            0            0            0 
10201000    486.48666    66092.205    417.08182   -354.50911    635.29649    280.78739    749.70556   -354.50911            0   -7.9236204            0            0            0            0            0            0 
10202000    790.69695    59465.166    451.17257   -385.87251    687.22333    301.35082    987.07362   -385.87251            0   -8.8066608            0            0            0            0            0            0 
10203000     717.7065     60198.03    466.61374   -379.65391    710.74322    331.08932    961.18289   -379.65391            0   -8.6994466            0            0            0            0            0            0 
10204000    734.19895    60782.211    451.35695   -378.20377    687.50416    309.30039    960.12826   -378.20377            0   -8.6158358            0            0            0            0            0            0 
10205000     667.2442    61147.031    437.31009   -376.11661    666.10807    289.99146    885.01764   -376.11661            0   -8.5644313            0            0            0            0            0            0 
10206000    703.30548    60905.918    457.17079   -369.55355    696.35977    326.80622    951.51755   -369.55355            0   -8.5983359            0            0            0            0            0            0 
10207000     814.2377    58891.393    446.69262   -377.88585    680.39948    302.51364    1001.8384   -377.88585            0   -8.8924632            0            0            0            0            0            0 
10208000    731.31492    59545.678    439.64022   -388.64069    669.65732    281.01663    916.09975   -388.64069            0   -8.7947532            0            0            0            0            0            0 
10209000    599.31198    59470.588    428.85044   -399.34964     653.2224    253.87276    773.66654   -399.34964            0   -8.8058579            0            0            0            0            0            0 
10210000    790.97238    57946.961    434.77058   -394.14036    662.23991    268.09954    936.54792   -394.14036            0   -9.0373945            0            0            0            0            0            0 
10211000    572.42206    63542.171    437.31517   -372.11335    666.11581    294.00247     824.4645   -372.11335            0   -8.2416061            0            0            0            0            0            0 
10212000    585.72809    59653.973    424.22814    -405.3549    646.18174    240.82684    750.40559    -405.3549            0   -8.7787874            0            0            0            0            0            0 
10213000    679.21439    59267.102    414.80087   -385.53047    631.82216     246.2917    833.37058   -385.53047            0   -8.8360917            0            0            0            0            0            0 
10214000    695.24705    58531.547    444.92967   -396.13254    677.71417    281.58163    875.06021   -396.13254            0   -8.9471331            0            0            0            0            0            0 
10215000    637.77808    60956.187    455.34482   -389.96392    693.57846    303.61455    870.58871   -389.96392            0   -8.5912452            0            0            0            0            0            0 
10216000    758.16594    58809.235    440.40541   -394.41207    670.82286    276.41079    926.66876   -394.41207            0   -8.9048862            0            0            0            0            0            0 
10217000    677.64433    63281.324    426.14877   -363.65142    649.10723    285.45581    910.84916   -363.65142            0   -8.2755781            0            0            0            0            0            0 
10218000    708.56498    58991.769    446.66253   -391.54994    680.35366    288.80372    898.40658   -391.54994            0   -8.8773324            0            0            0            0            0            0 
10219000    785.88352    59352.347    429.49682   -365.68935    654.20695     288.5176    968.77296   -365.68935            0   -8.8234007            0            0            0            0            0            0 
10220000    822.62774    61124.661    462.37526   -363.81597    704.28719    340.47123    1073.7949   -363.81597            0   -8.5675657            0            0            0            0            0            0 
10221000    677.18172    62293.992    431.44251   -365.22284    657.17061    291.94777    907.16328   -365.22284            0   -8.4067425            0            0            0            0            0            0 
10222000    746.60105    58068.125    456.41678   -392.30134    695.21127    302.90992     935.1795   -392.30134            0   -9.0185372            0            0            0            0            0            0 
10223000    738.30031    60136.699    441.73415   -379.70694    672.84678    293.13984    940.65289   -379.70694            0   -8.7083187            0            0            0            0            0            0 
10224000    767.82109    59286.497    448.09716   -383.78459    682.53888    298.75429    962.63754   -383.78459            0   -8.8332011            0            0            0            0            0            0 
10225000    676.53745    61587.443    424.15966   -362.68446    646.07743    283.39296    891.05192   -362.68446            0   -8.5031869            0            0            0            0            0            0 
10226000    593.93661     59758.48    437.32511   -401.79145    666.13095     264.3395    781.96484   -401.79145            0   -8.7634348            0            0            0            0            0            0 
10227000    695.07696    60438.513    411.18356    -385.4613    626.31231    240.85101    853.51528    -385.4613            0   -8.6648318            0            0            0            0            0            0 
10228000    730.96223    58883.433    449.76297   -391.81639    685.07623    293.25984    920.97692   -391.81639            0   -8.8936653            0            0            0            0            0            0 
10229000    789.76516    60877.226    465.18443   -368.69602    708.56611    339.87009    1041.0488   -368.69602            0   -8.6023885            0            0            0            0            0            0 
10230000    672.83809    58216.843    443.39815   -405.39617    675.38138     269.9852     841.2469   -405.39617            0   -8.9954989            0            0            0            0            0            0 
10231000    709.60599    61514.224     432.1597   -370.90404    658.26303    287.35899    923.96203   -370.90404            0   -8.5133082            0            0            0            0            0            0 
10232000    701.73762     61195.09     434.6765   -379.37497    662.09661    282.72164    908.99974   -379.37497            0   -8.5577053            0            0            0            0            0            0 
10233000    749.08891    60578.052    444.35727   -368.90871     676.8423    307.93359    969.73023   -368.90871            0   -8.6448727            0            0            0            0            0            0 
10234000    729.83941    59329.524    453.95274   -390.91279    691.45806    300.54527     932.0463   -390.91279            0    -8.826795            0            0            0            0            0            0 
10235000    617.21512    62157.871    437.10214   -384.10319    665.79133    281.68814    841.19908   -384.10319            0   -8.4251526            0            0            0            0            0            0 
10236000    690.68629    60617.024    430.88548   -378.73211    656.32214    277.59004    888.18236   -378.73211            0   -8.6393147            0            0            0            0            0            0 
10237000    663.50446    60702.298    436.30988   -384.98884    664.58456    279.59573    866.98345   -384.98884            0   -8.6271782            0            0            0            0            0            0 
10238000    678.32364    60029.862    432.43324    -386.7267    658.67969    271.95299    865.80768    -386.7267            0   -8.7238172            0            0            0            0            0            0 
10239000     601.2299    60897.113    433.64479    -384.2856    660.52512    276.23952    810.20497    -384.2856            0   -8.5995792            0            0            0            0            0            0 
10240000    744.06309    58907.891     440.9696   -390.20724    671.68221    281.47497    920.70788   -390.20724            0   -8.8899728            0            0            0            0            0            0 
10241000    870.17529    59632.091    454.52098   -364.40896     692.3236    327.91464    1084.6825   -364.40896            0   -8.7820087            0            0            0            0            0            0 
10242000    650.48957    62041.328    415.13249   -371.01771    632.32729    261.30958    849.87848   -371.01771            0    -8.440979            0            0            0            0            0            0 
10243000    596.98167     60971.19     425.6535    -401.0674    648.35284    247.28543    778.12289    -401.0674            0   -8.5891311            0            0            0            0            0            0 
10244000    683.57216    58845.765    442.40999   -394.10158    673.87621    279.77463    866.41976   -394.10158            0   -8.8993583            0            0            0            0            0            0 
10245000    538.01382    66256.694    425.57617   -354.04971    648.23504    294.18534    814.06051   -354.04971            0   -7.9039493            0            0            0            0            0            0 
10246000    962.72002    57049.204    448.85319   -378.10646    683.69046      305.584     1106.571   -378.10646            0   -9.1796118            0            0            0            0            0            0 
10247000    671.31823    60071.371    423.67265   -387.74691    645.33561     257.5887    845.71672   -387.74691            0   -8.7177892            0            0            0            0            0            0 
10248000     682.1489      61718.6    418.24141    -370.3821    637.06278    266.68068     880.6846    -370.3821            0    -8.485117            0            0            0            0            0            0 
10249000     672.5369    59780.083     420.0636   -386.48887    639.83834    253.34946    839.68812   -386.48887            0   -8.7602679            0            0            0            0            0            0 
10250000    644.47715    60016.545    450.39357   -387.45825    686.03676    298.57851    862.67631   -387.45825            0    -8.725753            0            0            0            0            0            0 
10251000    798.52434    58426.412    445.50554   -384.49848    678.59134    294.09286    974.50689   -384.49848            0   -8.9632331            0            0            0            0            0            0 
10252000    691.67848    61254.234    430.57203    -372.3564    655.84471    283.48831    901.38557    -372.3564            0   -8.5494424            0            0            0            0            0            0 
10253000    761.58689    61135.532     436.7163   -359.24807    665.20362    305.95556    984.98569   -359.24807            0   -8.5660422            0            0            0            0            0            0 
10254000     574.2768    59478.702     438.9088    -405.2591    668.54322    263.28413    761.43243    -405.2591            0   -8.8046565            0            0            0            0            0            0 
10255000    728.57281     61733.57    459.54787   -372.67355    699.98053    327.30698    983.25622   -372.67355            0   -8.4830595            0            0            0            0            0            0 
10256000    838.53726    59592.451    445.63955    -363.1325    678.79545    315.66295    1044.4313    -363.1325            0   -8.7878505            0            0            0            0            0            0 
10257000    701.53859    59446.759    455.44241   -391.34016    693.72712    302.38696    910.59988   -391.34016            0   -8.8093876            0            0            0            0            0            0 
10258000    712.84497    60505.578    421.32501    -374.8112     641.7597     266.9485    895.97131    -374.8112            0   -8.6552275            0            0            0            0            0            0 
10259000    718.22863     57649.79    444.77492   -408.65779    677.47845    268.82067    872.68076   -408.65779            0     -9.08398            0            0            0            0            0            0 
10260000    664.65172    61509.655    441.16344   -380.00069    671.97748    291.97678    888.20608   -380.00069            0   -8.5139405            0            0            0            0            0            0 
10261000    754.34191    60433.025    425.34985    -369.8361    647.89031     278.0542    942.89622    -369.8361            0   -8.6656186            0            0            0            0            0            0 
10262000    690.90343    61022.367    436.46831   -376.83149    664.82588    287.99439    902.86295   -376.83149            0   -8.5819277            0            0            0            0            0            0 
10263000    607.84787    63184.386    430.75776   -372.19356    656.12761    283.93405    844.05337   -372.19356            0   -8.2882747            0            0            0            0            0            0 
10264000    788.21278    58152.642    433.88518   -392.50581    660.89128    268.38547    936.86607   -392.50581            0     -9.00543            0            0            0            0            0            0 
10265000    630.52957    61974.075    456.20715   -377.53452    694.89196    317.35744    887.24792   -377.53452            0   -8.4501389            0            0            0            0            0            0 
10266000    760.60339    61071.509    440.69849   -363.85766    671.26927    307.41161    984.85467   -363.85766            0   -8.5750222            0            0            0            0            0            0 
10267000    806.28389    58492.092     468.3224   -391.34604    713.34583    321.99979     1009.798   -391.34604            0   -8.9531683            0            0            0            0            0            0 
10268000    747.34503    60898.927    413.73119   -360.72011    630.19284    269.47273    933.22602   -360.72011            0    -8.599323            0            0            0            0            0            0 
10269000     710.0216    59535.846    421.26695   -389.19908    641.67127    252.47219    868.96211   -389.19908            0   -8.7962057            0            0            0            0            0            0 
10270000    761.68263    60785.323    445.89211   -364.02633    679.18015    315.15382    990.37906   -364.02633            0   -8.6153947            0            0            0            0            0            0 
10271000    737.38622    63155.299    456.85237   -359.53215    695.87476    336.34262    1015.5161   -359.53215            0    -8.292092            0            0            0            0            0            0 
10272000    726.71279    57401.836    459.10932   -415.35378    699.31254    283.95876    892.32412   -415.35378            0   -9.1232194            0            0            0            0            0            0 
10273000    621.81916    60098.162    448.65464    -391.4353    683.38803    291.95273     836.9586    -391.4353            0   -8.7139028            0            0            0            0            0            0 
10274000    805.62568    60657.248    474.00917   -372.34985    722.00789    349.65804    1062.3336   -372.34985            0   -8.6335857            0            0            0            0            0            0 
10275000      780.019    59359.159    429.73161   -380.70597    654.56459    273.85862    949.11517   -380.70597            0   -8.8223882            0            0            0            0            0            0 
10276000    599.47683    65622.754    446.94612     -352.275    680.78561    328.51061    902.23425     -352.275            0   -7.9803043            0            0            0            0            0            0 
10277000    754.21851    59842.383    470.39007   -383.41207     716.4953    333.08323    991.31972   -383.41207            0   -8.7511479            0            0            0            0            0            0 
10278000    705.47079    59555.004    458.98206   -386.54308    699.11868     312.5756     925.3113   -386.54308            0   -8.7933761            0            0            0            0            0            0 
10279000    556.14191    60950.723    441.49641   -399.97526    672.48465    272.50939    766.86603   -399.97526            0   -8.5920154            0            0            0            0            0            0 
10280000    766.83637    57717.084    437.11544   -402.60169    665.81159     263.2099    908.69017   -402.60169            0   -9.0733888            0            0            0            0            0            0 
10281000    660.72069    64192.179    440.04642    -356.1052    670.27604    314.17084    932.72241    -356.1052            0   -8.1581518            0            0            0            0            0            0 
10282000    766.50788    58875.822    468.94201   -390.92696    714.28962    323.36266    981.51965   -390.92696            0    -8.894815            0            0            0            0            0            0 
10283000    644.38541    60041.508    450.44012   -392.89871    686.10765    293.20894    857.46103   -392.89871            0   -8.7221252            0            0            0            0            0            0 
10284000    727.08603    61269.507    439.39369   -368.53663    669.28181    300.74517    950.43502   -368.53663            0   -8.5473112            0            0            0            0            0            0 
10285000    658.44575    60828.594    434.63135   -392.75599    662.02784    269.27185    853.39399   -392.75599            0    -8.609266            0            0            0            0            0            0 
10286000    631.53486    60937.836    441.78015   -386.89886    672.91685    286.01799    847.27302   -386.89886            0   -8.5938323            0            0            0            0            0            0 
10287000    531.96909     58509.29    423.17255   -418.17017    644.57386    226.40369    680.33183   -418.17017            0   -8.9505367            0            0            0            0            0            0 
10288000    717.49702    60631.694    432.28963   -377.15203    658.46095    281.30892    915.75643   -377.15203            0   -8.6372244            0            0            0            0            0            0 
10289000    639.77213    59359.235    475.09983    -404.9787    723.66918    318.69048    872.53708    -404.9787            0    -8.822377            0            0            0            0            0            0 
10290000    695.09898    60026.908    455.32318   -378.69304     693.5455    314.85246    923.36357   -378.69304            0   -8.7242466            0            0            0            0            0            0 
10291000     727.1529    61037.194     462.3087   -373.63562     704.1858    330.55018    977.83615   -373.63562            0   -8.5798431            0            0            0            0            0            0 
10292000    598.24597     61678.01     463.8772   -383.03152    706.57493    323.54341    861.67195   -383.03152            0    -8.490701            0            0            0            0            0            0 
10293000    790.08084    59302.607    442.14981    -375.9329     673.4799      297.547    980.86241    -375.9329            0   -8.8308014            0            0            0            0            0            0 
10294000      729.371    58627.834    414.36762   -391.98226    631.16225    239.17999    862.81176   -391.98226            0   -8.9324389            0            0            0            0            0            0 
10295000    722.11352    62131.588    452.42864   -360.90053    689.13655    328.23603    982.56149   -360.90053            0   -8.4287166            0            0            0            0            0            0 
10296000    782.46796    58964.827    453.52881   -392.04096    690.81234    298.77138    971.64806   -392.04096            0   -8.8813887            0            0            0            0            0            0 
10297000    676.15774    62543.118    427.17333    -365.7233    650.66783    284.94453    901.68641    -365.7233            0   -8.3732562            0            0            0            0            0            0 
10298000    751.44951    59592.694    421.90955   -385.45953    642.65007    257.19055    910.27406   -385.45953            0   -8.7878145            0            0            0            0            0            0 
10299000    730.08885    61261.892    436.91176   -362.75507    665.50134    302.74627     955.0382   -362.75507            0   -8.5483737            0            0            0            0            0            0 
10300000    813.02992    62007.494    439.51598   -353.00938    669.46807    316.45869    1051.6944   -353.00938            0   -8.4455848            0            0            0            0            0            0 
10301000    749.59977    58669.503    437.84909   -388.04735    666.92908    278.88173    920.26517   -388.04735            0   -8.9260949            0            0            0            0            0            0 
10302000    597.63775    62466.389    426.39886    -378.7138    649.48815    270.77435    815.22725    -378.7138            0   -8.3835412            0            0            0            0            0            0 
10303000    627.54755    61509.204    417.96377   -378.03707    636.63988    258.60281    821.54349   -378.03707            0    -8.514003            0            0            0            0            0            0 
10304000    716.29758    61088.667    431.56607   -378.57423    657.35882    278.78459    916.94524   -378.57423            0   -8.5726137            0            0            0            0            0            0 
10305000    731.02049    60529.017    449.75252   -376.04371    685.06031     309.0166    954.32759   -376.04371            0   -8.6518759            0            0            0            0            0            0 
10306000    753.60435     59565.44    456.04068   -383.60025     694.6384    311.03816    965.69489   -383.60025            0   -8.7918355            0            0            0            0            0            0 
10307000    638.43418    64980.458    417.98596    -343.4725    636.67368    293.20118    898.22823    -343.4725            0   -8.0591852            0            0            0            0            0            0 
10308000    664.19787    60194.859    425.10501   -388.85723    647.51737    258.66014    841.74635   -388.85723            0   -8.6999048            0            0            0            0            0            0 
10309000    647.93049    59137.145    432.67746   -393.76575    659.05168    265.28593    824.09656   -393.76575            0   -8.8555094            0            0            0            0            0            0 
10310000     662.7203    58924.964    446.25254   -397.79079    679.72916    281.93837     851.4538   -397.79079            0   -8.8873969            0            0            0            0            0            0 
10311000     674.4198    59156.328    415.90297    -384.8847    633.50089    248.61618    830.46132    -384.8847            0   -8.8526378            0            0            0            0            0            0 
10312000    720.09401    60798.862    457.21279   -382.30462    696.42374    314.11912    952.61858   -382.30462            0   -8.6134761            0            0            0            0            0            0 
10313000    645.86446    61482.887    454.47554   -381.72622    692.25439    310.52817    889.65212   -381.72622            0   -8.5176473            0            0            0            0            0            0 
10314000    732.42065    60083.839    451.07977   -382.98541    687.08197    304.09656    945.88834   -382.98541            0   -8.7159801            0            0            0            0            0            0 
10315000    662.21667    62676.955    443.89678   -372.79175    676.14088    303.34913    908.66755   -372.79175            0   -8.3553764            0            0            0            0            0            0 
10316000    823.85751    59901.324    440.90468   -366.79382    671.58334    304.78953    1024.5109   -366.79382            0    -8.742537            0            0            0            0            0            0 
10317000    591.33579    58648.533     417.6039   -406.45271    636.09173    229.63902    735.42549   -406.45271            0   -8.9292863            0            0            0            0            0            0 
10318000    687.57628    62563.903    421.68227   -360.37802    642.30387    281.92585    909.29133   -360.37802            0   -8.3704743            0            0            0            0            0            0 
10319000    745.30207    58839.687    431.34988   -394.63584    657.02952    262.39368    901.94967   -394.63584            0   -8.9002776            0            0            0            0            0            0 
10320000    668.80942    60335.829    469.38148   -387.78603    714.95902      327.173     915.6826   -387.78603            0   -8.6795781            0            0            0            0            0            0 
10321000     745.0488     59786.39    472.59412   -384.45077    719.85249    335.40173    985.02703   -384.45077            0   -8.7593439            0            0            0            0            0            0 
10322000    699.84791    60045.851    431.89355   -385.90857    657.85764    271.94907    884.81089   -385.90857            0   -8.7214943            0            0            0            0            0            0 
10323000    464.34924    61207.249     430.3674   -406.08216    655.53301    249.45085    663.94986   -406.08216            0   -8.5560052            0            0            0            0            0            0 
10324000    778.88301    59292.901    421.10958   -380.32551    641.43156    261.10605    934.62655   -380.32551            0    -8.832247            0            0            0            0            0            0 
10325000    812.73245     61394.49    442.04587   -361.59849    673.32158    311.72309    1039.4239   -361.59849            0   -8.5299112            0            0            0            0            0            0 
10326000    796.80327    58401.977    446.48017   -392.25376    680.07589    287.82213    966.48571   -392.25376            0   -8.9669832            0            0            0            0            0            0 
10327000    696.17123    61235.963    408.76125    -366.0255    622.62266    256.59715    878.32242    -366.0255            0   -8.5519933            0            0            0            0            0            0 
10328000    692.20368    60877.696    462.41052   -385.85063    704.34091    318.49027    933.05553   -385.85063            0    -8.602322            0            0            0            0            0            0 
10329000    674.97759    60694.046    445.31134   -386.27994    678.29553    292.01559    889.47903   -386.27994            0   -8.6283512            0            0            0            0            0            0 
10330000    677.33007    58238.369     435.3987   -401.57246    663.19665    261.62419    836.91236   -401.57246            0    -8.992174            0            0            0            0            0            0 
10331000    608.32053    64099.404    443.33251    -359.1408    675.28139     316.1406    884.81327    -359.1408            0   -8.1699596            0            0            0            0            0            0 
10332000    661.88853    60681.693     439.5659   -389.51662    669.54411    280.02749    865.78576   -389.51662            0   -8.6301077            0            0            0            0            0            0 
10333000    820.34825    57784.637    439.31565   -393.55575    669.16293    275.60718    966.93898   -393.55575            0   -9.0627817            0            0            0            0            0            0 
10334000    646.27164    64108.049     434.6625   -357.87112    662.07529    304.20417    908.43592   -357.87112            0    -8.168858            0            0            0            0            0            0 
10335000    674.33334    59878.007    442.11624   -385.27267    673.42877     288.1561    877.02397   -385.27267            0   -8.7459415            0            0            0            0            0            0 
10336000    661.27262    60768.221    449.84288   -377.12274    685.19795    308.07521    894.12289   -377.12274            0   -8.6178193            0            0            0            0            0            0 
10337000    899.28725    59361.412    442.21842   -376.64144    673.58442    296.94298    1075.4787   -376.64144            0   -8.8220534            0            0            0            0            0            0 
10338000    686.70153    63000.334    450.97953   -360.22045    686.92928    326.70883    957.64694   -360.22045            0   -8.3124884            0            0            0            0            0            0 
10339000    757.59307    61166.027    436.80518   -368.88768    665.33901    296.45133     972.2575   -368.88768            0   -8.5617715            0            0            0            0            0            0 
10340000    875.04978      58076.9    444.85687   -377.91316    677.60328    299.69012    1040.8503   -377.91316            0   -9.0171746            0            0            0            0            0            0 
10341000    773.00386    60054.714    441.66781   -384.06123    672.74572    288.68449    965.70941   -384.06123            0   -8.7202072            0            0            0            0            0            0 
10342000    746.07138    61683.111     426.5071   -361.64943    649.65303     288.0036    959.15815   -361.64943            0   -8.4899989            0            0            0            0            0            0 
10343000    641.25563    61394.009    409.27815   -379.54282    623.40999    243.86717    818.02737   -379.54282            0   -8.5299779            0            0            0            0            0            0 
10344000    607.90834    58479.224    442.73397   -415.00376     674.3697    259.36594    777.82635   -415.00376            0   -8.9551384            0            0            0            0            0            0 
10345000     721.0114    58695.842    408.68248   -391.65075    622.50268    230.85193    848.05114   -391.65075            0   -8.9220893            0            0            0            0            0            0 
10346000    705.37794    58883.055     443.6117   -398.28317    675.70665    277.42347    883.16605   -398.28317            0   -8.8937224            0            0            0            0            0            0 
10347000    776.37214    59915.088    437.69872     -373.629    666.70003    293.07104    971.46509     -373.629            0   -8.7405286            0            0            0            0            0            0 
10348000     727.3971    58231.929     450.2585   -405.35665    685.83101    280.47437     898.2185   -405.35665            0   -8.9931685            0            0            0            0            0            0 
10349000    628.81296    63058.787    450.44828   -375.42835    686.12008    310.69173    888.97814   -375.42835            0    -8.304783            0            0            0            0            0            0 
10350000    754.03451    55154.702    386.93438   -421.05484    589.37609    168.32126    774.84757   -421.05484            0   -9.4949212            0            0            0            0            0            0 
10351000    726.69306    60769.909    426.42319   -372.89642    649.52521    276.62879    920.67272   -372.89642            0   -8.6175799            0            0            0            0            0            0 
10352000    730.31013    61369.822      441.278    -374.8248    672.15197    297.32717    950.96635    -374.8248            0   -8.5333399            0            0            0            0            0            0 
10353000    697.96599    62122.169    415.01056   -366.55715    632.14157    265.58443    897.93332   -366.55715            0   -8.4299945            0            0            0            0            0            0 
[...]
14939000    644.19355    61967.957     451.6489   -376.56584    687.94887    311.38303    893.56593   -376.56584            0   -8.4509732            0            0            0            0            0            0 
14940000    767.30902    58380.334    466.40765    -395.1866    710.42931    315.24271    968.54287    -395.1866            0   -8.9703074            0            0            0            0            0            0 
14941000    668.35873    62073.334    457.69478   -372.46143    697.15791    324.69648    929.74553   -372.46143            0   -8.4366267            0            0            0            0            0            0 
14942000     631.5538    60678.352    461.58243   -392.14433    703.07955    310.93522    869.81709   -392.14433            0   -8.6305829            0            0            0            0            0            0 
14943000    764.52148    57416.846    451.67503   -402.95583    687.98866    285.03283    925.21698   -402.95583            0   -9.1208344            0            0            0            0            0            0 
14944000     640.9023    63584.486    436.83274   -368.85471    665.38098    296.52627    890.84427   -368.85471            0   -8.2361214            0            0            0            0            0            0 
14945000    654.40685    61161.596     450.0031    -387.1269      685.442    298.31509    882.03235    -387.1269            0   -8.5623917            0            0            0            0            0            0 
14946000    532.90802    60715.342    424.28294    -402.0261    646.26519     244.2391    716.11369    -402.0261            0   -8.6253248            0            0            0            0            0            0 
14947000    596.78058    59207.853    430.84364   -397.60017    656.25842    258.65825    773.96981   -397.60017            0   -8.8449338            0            0            0            0            0            0 
14948000    744.86263    60257.219    446.00603   -386.74237    679.35367    292.61131    947.18894   -386.74237            0   -8.6909013            0            0            0            0            0            0 
14949000    669.12666    62204.632    447.88882   -373.88474    682.22153     308.3368    915.36231   -373.88474            0   -8.4188191            0            0            0            0            0            0 
14950000    676.08064    60450.949    438.17466   -383.99566    667.42498    283.42931    879.47221   -383.99566            0   -8.6630492            0            0            0            0            0            0 
14951000    746.52933    61018.605    460.53661   -374.40691    701.48657    327.07966    991.41146   -374.40691            0   -8.5824568            0            0            0            0            0            0 
14952000    575.97983    63553.329    438.87822    -366.0238    668.49665    302.47284    836.32557    -366.0238            0   -8.2401592            0            0            0            0            0            0 
14953000    663.13396    58922.393    444.65253   -400.62193    677.29203     276.6701    846.51615   -400.62193            0   -8.8877848            0            0            0            0            0            0 
14954000    610.85566    61440.031    415.90973   -378.66205    633.51117    254.84913    802.20013   -378.66205            0   -8.5235885            0            0            0            0            0            0 
14955000    750.75455    62453.984    417.37983   -351.43007    635.75043    284.32036     968.1281   -351.43007            0   -8.3852063            0            0            0            0            0            0 
14956000    695.60475    59282.827    424.94456   -384.79221    647.27297    262.48076    863.88618   -384.79221            0   -8.8337478            0            0            0            0            0            0 
14957000    761.51386    59359.383    449.11159   -386.59744    684.08405    297.48661     956.7259   -386.59744            0   -8.8223549            0            0            0            0            0            0 
14958000    637.29068    60277.653    427.50943   -389.61925    651.17978    261.56053    821.79495   -389.61925            0   -8.6879552            0            0            0            0            0            0 
14959000    659.94065    59702.026    431.04573   -392.73079    656.56624    263.83546    838.44103   -392.73079            0   -8.7717215            0            0            0            0            0            0 
14960000    781.31251    60326.585    435.01953    -373.4806    662.61911    289.13851    976.53832    -373.4806            0   -8.6809082            0            0            0            0            0            0 
14961000     700.6679    61752.251      444.989   -372.75822    677.80455    305.04633     936.0631   -372.75822            0   -8.4804933            0            0            0            0            0            0 
14962000    669.26757    58332.493    429.95798   -405.19262    654.90939    249.71677    819.07579   -405.19262            0   -8.9776644            0            0            0            0            0            0 
14963000    638.05419    58085.118    420.93891   -408.56147    641.17159    232.61012     773.1134   -408.56147            0   -9.0158987            0            0            0            0            0            0 
14964000    600.49261    60734.962    450.96258   -387.19969    686.90347    299.70378    831.59439   -387.19969            0   -8.6225385            0            0            0            0            0            0 
14965000    621.61865    61419.399    427.80859   -388.15449    651.63545    263.48096    820.28898   -388.15449            0   -8.5264519            0            0            0            0            0            0 
14966000    698.20524    59807.256    420.65276   -380.87111    640.73574    259.86463    868.85842   -380.87111            0   -8.7562878            0            0            0            0            0            0 
14967000    570.01406    63085.781    409.52856    -370.2122    623.79141    253.57921    778.01575    -370.2122            0   -8.3012295            0            0            0            0            0            0 
14968000    733.83639    60216.692    426.78509   -368.31794    650.07646    281.75851    926.21266   -368.31794            0   -8.6967505            0            0            0            0            0            0 
14969000    756.15345    58416.455    449.41434   -396.92549    684.54519     287.6197    931.82016   -396.92549            0   -8.9647608            0            0            0            0            0            0 
14970000    655.70885    64301.257    431.53952   -354.45153    657.31838    302.86685    917.76955   -354.45153            0   -8.1443127            0            0            0            0            0            0 
14971000    881.41498    58869.929    463.18608   -371.09834    705.52223    334.42389    1091.1694   -371.09834            0   -8.8957054            0            0            0            0            0            0 
14972000    704.05742    58762.407    435.10675   -395.33024    662.75196    267.42172     870.7915   -395.33024            0   -8.9119825            0            0            0            0            0            0 
14973000    516.91891     62779.61    425.82478   -378.31042    648.61372     270.3033    743.58195   -378.31042            0   -8.3417139            0            0            0            0            0            0 
14974000     682.9294    58902.787    431.50637   -402.34365    657.26789    254.92424    841.58568   -402.34365            0    -8.890743            0            0            0            0            0            0 
14975000    712.21251    60578.352    445.78896   -382.13305    679.02304       296.89     926.1106   -382.13305            0   -8.6448299            0            0            0            0            0            0 
14976000    824.41333    58860.964    441.86652   -381.07318     673.0484    291.97522     999.6737   -381.07318            0   -8.8970603            0            0            0            0            0            0 
14977000    571.63613    61625.778    440.68534   -391.73152    671.24923    279.51772    793.27498   -391.73152            0   -8.4978974            0            0            0            0            0            0 
14978000    570.72993    60694.818    433.18946   -396.70671    659.83156    263.12485    768.31881   -396.70671            0   -8.6282415            0            0            0            0            0            0 
14979000    665.70474    61147.191    417.00987   -376.99174     635.1869    258.19516    851.85005   -376.99174            0   -8.5644089            0            0            0            0            0            0 
14980000      743.917    59727.799    428.61348   -384.52125    652.86145     268.3402      916.343   -384.52125            0   -8.7679364            0            0            0            0            0            0 
14981000    680.71381    60746.207    462.75974   -382.43032    704.87283     322.4425    925.50125   -382.43032            0   -8.6209422            0            0            0            0            0            0 
14982000    666.56112    64467.411     447.5829   -354.07725    681.75556    327.67831    954.37312   -354.07725            0   -8.1233221            0            0            0            0            0            0 
14983000    682.32676    59001.044    429.67599   -395.12624    654.47986    259.35362    846.47512   -395.12624            0    -8.875937            0            0            0            0            0            0 
14984000    598.69611    59477.746    399.50648    -394.3965    608.52584    214.12935    733.45148    -394.3965            0   -8.8047981            0            0            0            0            0            0 
14985000    663.54084    60156.202    437.69335    -395.6821    666.69185    271.00976    853.14508    -395.6821            0   -8.7054955            0            0            0            0            0            0 
14986000    643.07689    59712.333    465.50586   -398.85222     709.0557    310.20348    870.22258   -398.85222            0   -8.7702074            0            0            0            0            0            0 
14987000    750.12631    61952.734    423.83944   -357.00745    645.58966    288.58221    966.33415   -357.00745            0   -8.4530498            0            0            0            0            0            0 
14988000    750.62508    58926.745    442.93522   -388.34087    674.67625    286.33537    931.41216   -388.34087            0   -8.8871283            0            0            0            0            0            0 
14989000    604.58307    61198.209    426.93141   -387.87534    650.29933    262.42399    802.02231   -387.87534            0   -8.5572692            0            0            0            0            0            0 
14990000    541.48361    62798.329    427.61138   -381.62546    651.33505    269.70959    765.62694   -381.62546            0   -8.3392274            0            0            0            0            0            0 
14991000    761.35561     57795.87    462.48509   -400.78872    704.45449    303.66577    945.40745   -400.78872            0   -9.0610202            0            0            0            0            0            0 
14992000    722.72071    61216.917    448.82707   -375.25428    683.65067    308.39639    953.63129   -375.25428            0   -8.5546541            0            0            0            0            0            0 
14993000    680.08132    61301.352    420.57418   -370.90544    640.61603    269.71059    877.71509   -370.90544            0    -8.542871            0            0            0            0            0            0 
14994000    699.55462    62384.901    432.63113   -355.51393    658.98111    303.46718    939.93582   -355.51393            0   -8.3944919            0            0            0            0            0            0 
14995000    785.47149    58542.031    449.55816   -388.97259    684.76427    295.79168    966.40797   -388.97259            0   -8.9455308            0            0            0            0            0            0 
14996000    595.20342    62792.951    446.19846   -374.07161    679.64679    305.57518    850.64508   -374.07161            0   -8.3399416            0            0            0            0            0            0 
14997000    615.11205      61619.9     425.1349   -375.09036     647.5629    272.47255    825.25102   -375.09036            0   -8.4987081            0            0            0            0            0            0 
14998000    698.48271    60733.221     434.0177   -386.14524    661.09314    274.94789     893.6162   -386.14524            0   -8.6227856            0            0            0            0            0            0 
14999000    686.00819    61750.033    440.71882   -368.67321    671.30023    302.62702    920.41916   -368.67321            0   -8.4807978            0            0            0            0            0            0 
15000000    744.69065    59106.956    460.91325   -393.87221    702.06027    308.18806    950.12207   -393.87221            0   -8.8600324            0            0            0            0            0            0 
Loop time of 1451.97 on 8 procs for 5000000 steps with 512 atoms

Pair  time (%) = 773.797 (53.2929)
Bond  time (%) = 0.454735 (0.0313185)
Neigh time (%) = 34.458 (2.37319)
Comm  time (%) = 480.356 (33.0831)
Outpt time (%) = 0.312794 (0.0215427)
Other time (%) = 162.591 (11.198)

Nlocal:    64 ave 74 max 57 min
Histogram: 2 0 1 2 0 1 0 1 0 1
Nghost:    1255.38 ave 1284 max 1228 min
Histogram: 1 2 0 1 0 0 0 2 1 1
Neighs:    5604.62 ave 6640 max 4937 min
Histogram: 2 2 0 0 1 0 1 1 0 1

Total # of neighbors = 44837
Ave neighs/atom = 87.5723
Ave special neighs/atom = 0
Neighbor list builds = 97082
Dangerous builds = 0

Averages
Group Pressure(MPa) Volume(m3) Temperature(K) PE(J) KE(J) ET(J) ET^2(J) H(J) H^2(J^2) V^2(m6) V*H(m3*J) Hconf(J) Uext*Hconf(J^2) V*Hconf(m3*J) Uext(J)
Block1 69.848744736539700284 6.0466591711294125659e-26 440.13373930238844878 -2.6592011575673587481e-18 4.6577974492724932785e-18 1.9985962917051341453e-18 4.0314570363981835675e-36 6.2153136622642053363e-18 3.8908223784038584365e-35 3.6591976092045907616e-51 3.7573474686820080686e-43 1.5575162129917060874e-18 -4.1183295606467454766e-36 9.4096839760120629481e-44 -2.6592011575673587481e-18
Block2 69.794990217745990435 6.050530103520592743e-26 440.53961385611495416 -2.6587471990521922775e-18 4.6620926924957671635e-18 2.0033454934435706489e-18 4.0514768625680707096e-36 6.2199394624345371987e-18 3.8966168166262726186e-35 3.663892955640212577e-51 3.7628478557197598323e-43 1.5578467699387684945e-18 -4.1177579216589361521e-36 9.4206017225129014147e-44 -2.6587471990521922775e-18
Block3 69.878658920614583394 6.0431739085412590021e-26 439.60621411464006769 -2.6625051876995089684e-18 4.6522148155080032565e-18 1.9897096278084935178e-18 3.995819301703544384e-36 6.2071880521610562225e-18 3.8800961794319537265e-35 3.6546503382527840601e-51 3.7508697031657311251e-43 1.5549732366530437215e-18 -4.1152119371824257171e-36 9.3941184007738266522e-44 -2.6625051876995089684e-18
Block4 70.22552790348987628 6.0526841487328891063e-26 441.8117586308150635 -2.6547697519277523152e-18 4.6755554020260464453e-18 2.0207856500982937449e-18 4.1201530886937747785e-36 6.2653639324488927875e-18 3.9537673916192650113e-35 3.6664747172114225533e-51 3.792029202065687924e-43 1.5898085304228422977e-18 -4.1929560505775746925e-36 9.6202381596056271279e-44 -2.6547697519277523152e-18
Block5 69.861008482407854103 6.0526712198217538588e-26 439.71658079752148751 -2.6556794461629723059e-18 4.6533827915300797921e-18 1.9977033453671051751e-18 4.0268024415475389475e-36 6.2194008404750498566e-18 3.8952959488652254992e-35 3.6662805245014105893e-51 3.763333177510479118e-43 1.5660180489449662126e-18 -4.1374318238125885636e-36 9.4681850694589562782e-44 -2.6556794461629723059e-18
Ave_blocks 69.921786052159603742 6.0491437103491816848e-26 440.36158134029602707 -2.658180548481956923e-18 4.6602086301664779872e-18 2.0020280816845195234e-18 4.0451417461822227447e-36 6.225441189956747664e-18 3.9033197429893152722e-35 3.6620992289620839896e-51 3.7652854814287332136e-43 1.5652325597902652472e-18 -4.1363374587756541204e-36 9.4625654656726752825e-44 -2.658180548481956923e-18
Stdev_blocks 0.15441838758509460194 3.7070630373409712398e-29 0.79664635700396702056 2.7551510332519420205e-21 8.4306587709146150745e-21 1.0351876922702076771e-20 4.1528640985991904725e-38 2.0475956887215482116e-20 2.5883561471133226076e-37 4.5552377593116358183e-54 1.4112454162823486932e-45 1.2836985133788057637e-20 2.9402836018129898041e-38 8.2625258536068993289e-46 2.7551510332519420205e-21






Properties
Group rho(kg/m3) Cp(J/K) Cp_conf(J/K) Cp_id(J/K) Cp2(J/K) kT(1/Pa) aP(1/K) aP2(1/K) Cv(J/K) uJT(K/Pa) sos(m/s) Cv2(J/K) uJT2(K/Pa) sos2(m/s) CvNVT(J/K)
Block1 225.56644543986561757 1.0397962174138116045e-19 -4.2424922394647432178e-22 3.6491413969875798433e-20 3.6067164745929322607e-20 8.1344358098395485021e-09 -0.00051994727336586931635 -0.00049997757875206328294 1.030951350045287243e-19 -7.1460300134977652507e-07 741.40253161076998367 3.5249314529670763906e-20 -2.0454252249104455979e-06 746.75767984689616696 1.3860179733168614859e-20
Block2 225.42213536371070859 1.0394537781499892578e-19 5.9502989610083527446e-22 3.6511756623164632249e-20 3.7106786519265464514e-20 8.1559971413363256229e-09 -0.00033631118864292414324 -0.00032056107798180159471 1.035757335607548671e-19 -6.683286083499832499e-07 738.81681305994891318 3.6770953876009617628e-20 -1.8608415673022795348e-06 740.86215859467915834 1.4213006078146722999e-20
Block3 225.69653573766808563 1.0186004869784481402e-19 1.5202128779905186859e-21 3.6464984469893948392e-20 3.7985197347884470088e-20 7.2392433975803479842e-09 -0.00015007646475486481922 -0.00017708202787026480806 1.0177739526076052209e-19 -6.324235702732106104e-07 782.64936615852946034 3.7870121360506371697e-20 -1.7147766640953421627e-06 783.51949942887665657 1.3820379561599507775e-20
Block4 225.34191153912414052 1.0496822544166881597e-19 2.5617826323091398244e-21 3.6575561397640179327e-20 3.9137344029949316142e-20 8.0610241537100245992e-09 -0.000121195799361942789 -0.0001453371672157736385 1.049194983832817487e-19 -6.0749617406547088056e-07 742.13809749641518465 3.9067271396177747949e-20 -1.6458288783212130196e-06 742.63093619807341383 1.3572738424903004072e-20
Block5 225.34239288454065786 1.0189672731451213329e-19 -1.7722348279522556648e-21 3.6470512969625467057e-20 3.4698278141673212897e-20 7.613562251156131952e-09 -0.00065954831069269448038 -0.00064411334767205420931 1.003760913855261592e-19 -7.6626922201703301406e-07 769.21824254192290482 3.3247982236192787228e-20 -2.2384260768756717336e-06 779.93051524690577025 1.3479629160176415869e-20
Ave_blocks 225.47388419298181361 1.0333000020208117472e-19 4.9610827090035275964e-22 3.650284588603999787e-20 3.6998954156940359657e-20 7.8408525507244768901e-09 -0.00035741580736365908795 -0.00035741423989839153381 1.0274877071897040428e-19 -6.7782411521109491952e-07 754.84501017351726659 3.6441128679711452867e-20 -1.9010596823009903674e-06 758.74015786308632414 1.3789186591598851008e-20
Stdev_blocks 0.13822154800797292751 1.2409277401583101773e-21 1.5045281409139671189e-21 3.9941306656190201814e-23 1.5309053747853462275e-21 3.5988254506447693656e-10 0.00020829566827652596511 0.00019046009082175567703 1.5549322720154103273e-21 5.7048429988045301693e-08 17.769304898404360671 2.0329306671463565969e-21 2.1731043096329314575e-07 18.898447948920381378 2.5624659877545963418e-22






