LAMMPS (28 Oct 2012)
Scanning data file ...
Reading data file ...
  orthogonal box = (0 0 0) to (100 100 100)
  2 by 2 by 2 MPI processor grid
  512 atoms
Finding 1-2 1-3 1-4 neighbors ...
  0 = max # of 1-2 neighbors
  0 = max # of 1-3 neighbors
  0 = max # of 1-4 neighbors
  1 = max # of special neighbors
WARNING: Resetting reneighboring criteria during minimization (min.cpp:173)
Setting up minimization ...
Memory usage per processor = 4.05499 Mbytes
Step Temp E_pair E_mol TotEng Press 
       0       400.15    1409.7233            0    2019.2294    440.37837 
     701       400.15   -217.27527            0    392.23079    27.633475 
Loop time of 0.0531975 on 8 procs for 701 steps with 512 atoms

Minimization stats:
  Stopping criterion = energy tolerance
  Energy initial, next-to-last, final = 
         1409.72334813     -217.256630745     -217.275265106
  Force two-norm initial, final = 5034.49 0.337455
  Force max component initial, final = 2457.89 0.147661
  Final line search alpha, max atom move = 0.254892 0.0376377
  Iterations, force evaluations = 701 710

Pair  time (%) = 0.00897908 (16.8788)
Bond  time (%) = 6.3777e-05 (0.119887)
Neigh time (%) = 0.00313699 (5.89688)
Comm  time (%) = 0.0210192 (39.5116)
Outpt time (%) = 0 (0)
Other time (%) = 0.0199985 (37.5929)

Nlocal:    64 ave 74 max 52 min
Histogram: 1 0 0 1 1 2 0 2 0 1
Nghost:    235.125 ave 266 max 224 min
Histogram: 4 0 2 0 0 1 0 0 0 1
Neighs:    316.25 ave 371 max 226 min
Histogram: 1 0 0 1 1 1 0 1 0 3

Total # of neighbors = 2530
Ave neighs/atom = 4.94141
Ave special neighs/atom = 0
Neighbor list builds = 60
Dangerous builds = 0
Setting up run ...
Memory usage per processor = 3.36354 Mbytes
Step Temp E_pair E_mol TotEng Press Volume 
     701       400.15   -217.27527            0    392.23079    27.633475      1000000 
 5000701    403.19095   -437.91016            0    176.22785    678.82626    54637.154 
Loop time of 1470.6 on 8 procs for 5000000 steps with 512 atoms

Pair  time (%) = 836.623 (56.8898)
Bond  time (%) = 0.47403 (0.0322337)
Neigh time (%) = 34.988 (2.37916)
Comm  time (%) = 441.396 (30.0147)
Outpt time (%) = 4.38094e-05 (2.97901e-06)
Other time (%) = 157.121 (10.6841)

Nlocal:    64 ave 73 max 55 min
Histogram: 1 0 1 1 1 2 0 0 1 1
Nghost:    1312.38 ave 1328 max 1299 min
Histogram: 1 0 1 3 0 1 0 0 1 1
Neighs:    6057.12 ave 6941 max 5365 min
Histogram: 2 0 0 2 1 1 0 1 0 1

Total # of neighbors = 48457
Ave neighs/atom = 94.6426
Ave special neighs/atom = 0
Neighbor list builds = 92583
Dangerous builds = 13
Setting up run ...
Memory usage per processor = 3.96646 Mbytes
Step Press Volume Temp PotEng KinEng TotEng Enthalpy E_vdwl E_coul E_tail E_long E_bond E_angle E_dihed E_impro E_mol 
10000000    678.82626    54637.154    403.19095   -437.91016    614.13801    176.22785    717.13485   -437.91016            0   -9.5848613            0            0            0            0            0            0 
10001000    579.41198    58780.697    405.13484   -413.08106    617.09894    204.01788    700.72238   -413.08106            0   -8.9092096            0            0            0            0            0            0 
10002000    846.98372    55521.184    433.85098   -416.49012    660.83918    244.34906    930.16831   -416.49012            0   -9.4322474            0            0            0            0            0            0 
10003000    773.44347    52956.478    416.38241   -445.32728    634.23117    188.90388    786.24658   -445.32728            0   -9.8890553            0            0            0            0            0            0 
10004000    539.36152    57560.725    375.64046   -425.40309    572.17327    146.77018    599.54482   -425.40309            0    -9.098036            0            0            0            0            0            0 
10005000    622.56015     57551.94    390.79724   -418.06447    595.25999    177.19552    699.73267   -418.06447            0   -9.0994247            0            0            0            0            0            0 
10006000     874.1869    55166.184    390.51365   -398.05956    594.82802    196.76846    900.08872   -398.05956            0   -9.4929448            0            0            0            0            0            0 
10007000    784.69906    55340.653    413.51349   -416.19493    629.86125    213.66632    846.98646   -416.19493            0   -9.4630171            0            0            0            0            0            0 
10008000    615.05838    54557.597    398.00388   -447.04808    606.23709    159.18901    648.57042   -447.04808            0   -9.5988382            0            0            0            0            0            0 
10009000    658.09791    55194.093    377.57208   -431.46866    575.11551    143.64685    673.38226   -431.46866            0   -9.4881448            0            0            0            0            0            0 
10010000    644.50164     57826.95    401.52367   -408.49872    611.59842     203.0997    746.63806   -408.49872            0   -9.0561502            0            0            0            0            0            0 
10011000     822.7662    54640.442    399.41642    -419.0247    608.38867    189.36397    845.00563    -419.0247            0   -9.5842845            0            0            0            0            0            0 
10012000    739.99794    54852.142    384.74336   -423.04374    586.03875    162.99501    754.96541   -423.04374            0   -9.5472944            0            0            0            0            0            0 
10013000    749.41064    54787.621    401.57043   -422.52799    611.66964    189.14164    787.93667   -422.52799            0   -9.5585378            0            0            0            0            0            0 
10014000     628.5653    60411.414     381.0082   -380.88719    580.34937    199.46219    753.25242   -380.88719            0   -8.6687186            0            0            0            0            0            0 
10015000    802.84901     53387.31    406.04612   -436.55846    618.48699    181.92853     807.0261   -436.55846            0   -9.8092514            0            0            0            0            0            0 
10016000    680.08677    55561.178    427.90051   -428.69396    651.77546     223.0815     774.1577   -428.69396            0   -9.4254579            0            0            0            0            0            0 
10017000    928.42328    53121.981    429.77851   -427.17718    654.63602    227.45884    946.73584   -427.17718            0   -9.8582458            0            0            0            0            0            0 
10018000    706.40452     55982.54    405.46293   -421.52136    617.59867    196.07731    772.81981   -421.52136            0   -9.3545157            0            0            0            0            0            0 
10019000     717.3229     56399.84    383.90607   -415.56175    584.76339    169.20165    759.22398   -415.56175            0    -9.285302            0            0            0            0            0            0 
10020000    690.71962    55089.396    394.90744    -430.0515    601.52062    171.46913    726.40869    -430.0515            0    -9.506177            0            0            0            0            0            0 
10021000    697.36851    55763.654    380.39197   -421.73725    579.41075     157.6735    724.81241   -421.73725            0   -9.3912344            0            0            0            0            0            0 
10022000    635.92853    56092.353    390.95638   -419.41068    595.50239    176.09171    696.31269   -419.41068            0   -9.3362022            0            0            0            0            0            0 
10023000    689.28669    54925.168    412.35101    -427.0661    628.09057    201.02447    753.16189    -427.0661            0   -9.5346006            0            0            0            0            0            0 
10024000    612.87696    55423.647    397.63378   -435.83241    605.67336    169.84095    665.22758   -435.83241            0   -9.4488467            0            0            0            0            0            0 
10025000    664.92858    57106.162     408.0082   -422.17448    621.47562    199.30114     753.0768   -422.17448            0    -9.170456            0            0            0            0            0            0 
10026000     772.9554    54339.886    398.66704   -436.36994    607.24722    170.87728    783.43786   -436.36994            0   -9.6372956            0            0            0            0            0            0 
10027000    719.53827    57776.658    414.84947   -402.45523    631.89619    229.44097    835.73347   -402.45523            0   -9.0640332            0            0            0            0            0            0 
10028000    744.98742    55475.948    417.89253   -419.39859    636.53137    217.13279    819.87216   -419.39859            0   -9.4399387            0            0            0            0            0            0 
10029000    648.41568    55346.882    434.69176    -435.9064    662.11986    226.21346    749.60002    -435.9064            0    -9.461952            0            0            0            0            0            0 
10030000    531.37963    54538.851    404.79958   -452.75337    616.58826    163.83489    586.49063   -452.75337            0   -9.6021375            0            0            0            0            0            0 
10031000    751.44653    56576.613    413.42005   -415.41205    629.71891    214.30686    834.33431   -415.41205            0   -9.2562902            0            0            0            0            0            0 
10032000    779.67187    56401.149    439.81359   -410.88025    669.92139    259.04114    900.36251   -410.88025            0   -9.2850865            0            0            0            0            0            0 
10033000    697.81158    57508.495    409.89822    -411.5265    624.35448    212.82798    798.08424    -411.5265            0   -9.1062988            0            0            0            0            0            0 
10034000    665.91324    56698.247    404.85196   -425.29823    616.66806    191.36983    742.00401   -425.29823            0   -9.2364328            0            0            0            0            0            0 
10035000    631.53934    55862.472    390.26256   -421.70267    594.44557    172.74289    687.25601   -421.70267            0   -9.3746218            0            0            0            0            0            0 
10036000    844.41035    54039.132    403.18433   -423.44122    614.12793    190.68671    856.17099   -423.44122            0   -9.6909318            0            0            0            0            0            0 
10037000    547.91558    57737.296    395.88288   -417.40961     603.0064    185.59678    646.96321   -417.40961            0   -9.0702125            0            0            0            0            0            0 
10038000    728.95403    53223.925    406.32975   -446.49131    618.91901     172.4277    738.25375   -446.49131            0   -9.8393634            0            0            0            0            0            0 
10039000    577.57986    56584.746    412.59383   -429.95526    628.46043    198.50516    675.14167   -429.95526            0   -9.2549598            0            0            0            0            0            0 
10040000    714.77686    56877.548    397.12432   -404.87002    604.89736    200.02734    792.93523   -404.87002            0   -9.2073158            0            0            0            0            0            0 
10041000    694.57527    55209.498     390.0384   -421.11964    594.10413    172.98449    732.23837   -421.11964            0   -9.4854974            0            0            0            0            0            0 
10042000    776.40488    56261.427    389.73048   -406.06654     593.6351    187.56856    824.62058   -406.06654            0   -9.3081454            0            0            0            0            0            0 
10043000    662.40707    57266.076     434.7915   -420.00265    662.27177    242.26912    795.48963   -420.00265            0   -9.1448478            0            0            0            0            0            0 
10044000    729.96157    55703.028    379.42025   -410.60385    577.93062    167.32677    760.32676   -410.60385            0   -9.4014557            0            0            0            0            0            0 
10045000    769.43164    55314.943    407.89087   -426.57704    621.29689    194.71986    815.42936   -426.57704            0   -9.4674155            0            0            0            0            0            0 
10046000    695.60375    56120.836    380.02396   -413.23775    578.85019    165.61245    734.93965   -413.23775            0   -9.3314637            0            0            0            0            0            0 
10047000    660.70565    58803.256    403.65452   -392.91918    614.84411    221.92493    788.53631   -392.91918            0   -8.9057916            0            0            0            0            0            0 
10048000    704.02719    53782.727    396.23215   -440.81792     603.5384    162.72048     714.9354   -440.81792            0   -9.7371326            0            0            0            0            0            0 
10049000    664.34845    54650.592    395.80309   -441.74696    602.88486     161.1379    690.63878   -441.74696            0   -9.5825046            0            0            0            0            0            0 
10050000    759.22496    54117.306    389.62254   -431.78393    593.47069    161.68675    760.90156   -431.78393            0    -9.676933            0            0            0            0            0            0 
10051000    673.23422    58805.486    413.72154   -405.33516    630.17814    224.84299    802.22057   -405.33516            0   -8.9054539            0            0            0            0            0            0 
10052000    746.04319    53758.953    418.03309    -436.0988    636.74547    200.64668    785.55885    -436.0988            0   -9.7414387            0            0            0            0            0            0 
10053000    746.32863     55211.98    404.86116   -417.37714    616.68206    199.30492    800.25627   -417.37714            0   -9.4850709            0            0            0            0            0            0 
10054000    748.68235    55604.044     425.5291   -423.78463    648.16335    224.37871    831.50615   -423.78463            0   -9.4181917            0            0            0            0            0            0 
10055000    743.56697     54056.55     376.9043   -428.24864    574.09835    145.84971    732.04768   -428.24864            0   -9.6878092            0            0            0            0            0            0 
10056000    533.25248    56546.344    388.17483   -422.03994    591.26554    169.22561    608.98315   -422.03994            0    -9.261245            0            0            0            0            0            0 
10057000    599.33633     55716.13    399.09594   -438.69871    607.90052    169.20181     656.2001   -438.69871            0   -9.3992447            0            0            0            0            0            0 
10058000    763.14083    57351.756    430.38165   -401.11078    655.55472    254.44394    892.74754   -401.11078            0    -9.131186            0            0            0            0            0            0 
10059000    621.17194    54482.127    379.37836   -446.16825    577.86682    131.69857    625.26063   -446.16825            0   -9.6121348            0            0            0            0            0            0 
10060000    648.63833    55056.456    396.08991   -436.78911    603.32175    166.53264    687.35155   -436.78911            0   -9.5118645            0            0            0            0            0            0 
10061000    652.39064    54952.135    405.40476   -436.27028    617.51008     181.2398    704.07905   -436.27028            0   -9.5299218            0            0            0            0            0            0 
10062000    593.86275    57370.064    400.13368   -420.46434     609.4812    189.01685    685.89204   -420.46434            0    -9.128272            0            0            0            0            0            0 
10063000     720.1245     55105.32    379.41371    -427.9041    577.92067    150.01656     728.7479    -427.9041            0   -9.5034299            0            0            0            0            0            0 
10064000    693.30001     55820.95    394.94138   -431.90856    601.57231    169.66375    734.07325   -431.90856            0    -9.381595            0            0            0            0            0            0 
10065000    636.73483    56225.477     391.7445    -422.5538    596.70284    174.14904    696.26581    -422.5538            0    -9.314097            0            0            0            0            0            0 
10066000    529.05706    57566.375    359.43764    -417.6118    547.49323    129.88143    574.04946    -417.6118            0    -9.097143            0            0            0            0            0            0 
10067000    784.85401    52344.395    401.78454    -452.7131    611.99578    159.28268    758.43185    -452.7131            0   -10.004692            0            0            0            0            0            0 
10068000    707.88632    56385.282    397.47045   -418.88987    605.42458    186.53471    768.64486   -418.88987            0   -9.2876993            0            0            0            0            0            0 
10069000    588.61426    56595.078    407.95909   -425.82813    621.40081    195.57268    681.40381   -425.82813            0   -9.2532701            0            0            0            0            0            0 
10070000    859.45732    51258.328    395.32851   -454.27827    602.16199    147.88372    790.37116   -454.27827            0   -10.216672            0            0            0            0            0            0 
10071000    670.41094    55941.115    389.17814   -415.92443    592.79378    176.86935    723.81995   -415.92443            0   -9.3614428            0            0            0            0            0            0 
10072000    746.38441    55626.816    411.78763   -418.99504    627.23242    208.23737    813.74924   -418.99504            0   -9.4143361            0            0            0            0            0            0 
10073000    638.91562    56760.526    402.88918   -420.07063    613.67835    193.60772    722.49827   -420.07063            0   -9.2262983            0            0            0            0            0            0 
10074000     634.3721    55781.281    392.12723   -428.13209    597.28582    169.15373    685.22353   -428.13209            0   -9.3882667            0            0            0            0            0            0 
10075000    628.98572    56611.731    383.21501   -427.80884    583.71078    155.90195    675.20767   -427.80884            0   -9.2505482            0            0            0            0            0            0 
10076000    785.08786    55329.014    405.99447   -420.62804    618.40832    197.78028    831.28096   -420.62804            0   -9.4650077            0            0            0            0            0            0 
10077000    663.69226    54441.798    386.90564   -431.57428    589.33232    157.75804    684.71495   -431.57428            0   -9.6192552            0            0            0            0            0            0 
10078000    787.40818    57389.181    391.54943   -389.54663    596.40571    206.85908    865.89008   -389.54663            0   -9.1252312            0            0            0            0            0            0 
10079000    705.07977    56070.134    394.63751   -421.50069    601.10947    179.60878    756.17041   -421.50069            0   -9.3399018            0            0            0            0            0            0 
10080000     705.8799    53673.389     382.4842   -449.89967    582.59761    132.69794    685.24049   -449.89967            0   -9.7569681            0            0            0            0            0            0 
10081000     630.1911    56252.224    431.09255   -431.25242    656.63756    225.38515    742.38195   -431.25242            0   -9.3096683            0            0            0            0            0            0 
10082000    660.81897    56261.011    389.54585   -421.54713    593.35388    171.80675    714.01475   -421.54713            0   -9.3082143            0            0            0            0            0            0 
10083000    582.26849    57717.667    393.52544   -409.36981    599.41556    190.04575    680.17198   -409.36981            0   -9.0732972            0            0            0            0            0            0 
10084000    664.49713    55510.425    394.87739    -427.3716    601.47485    174.10325    712.05528    -427.3716            0   -9.4340756            0            0            0            0            0            0 
10085000    633.49728    56477.915    378.59554   -419.29502    576.67442     157.3794    679.17367   -419.29502            0    -9.272466            0            0            0            0            0            0 
10086000    687.12793    53884.046    379.67364   -435.16733    578.31658    143.14925    683.12429   -435.16733            0   -9.7188238            0            0            0            0            0            0 
10087000    619.12379    58578.867    408.00975   -406.00447    621.47798    215.47351    744.39882   -406.00447            0   -8.9399056            0            0            0            0            0            0 
10088000    746.81258    54243.219     397.3951   -439.64008    605.30981    165.66973     756.4595   -439.64008            0   -9.6544703            0            0            0            0            0            0 
10089000    596.28062    57701.499    387.67602   -412.62196    590.50576    177.88381     679.6642   -412.62196            0   -9.0758395            0            0            0            0            0            0 
10090000    573.57319    58019.796    381.53476   -416.75459    581.15143    164.39684    649.73108   -416.75459            0   -9.0260494            0            0            0            0            0            0 
10091000    675.25028    55262.682     394.5437   -428.13229    600.96657    172.83428    717.05192   -428.13229            0   -9.4763686            0            0            0            0            0            0 
10092000    833.23038    53848.806    415.99946   -426.84611    633.64785    206.80174    861.16222   -426.84611            0    -9.725184            0            0            0            0            0            0 
10093000    721.46234     54355.68    388.30237   -431.25117    591.45982    160.20865     732.1276   -431.25117            0   -9.6344954            0            0            0            0            0            0 
10094000    545.54675    56435.657    382.80313   -431.46986     583.0834    151.61354    600.62916   -431.46986            0   -9.2794091            0            0            0            0            0            0 
10095000    593.09415    54394.686    382.13197    -445.0895     582.0611     136.9716    607.46767    -445.0895            0   -9.6275866            0            0            0            0            0            0 
10096000     636.6155    57726.759    399.78585   -406.05328    608.95138     202.8981    738.85549   -406.05328            0   -9.0718682            0            0            0            0            0            0 
10097000    636.39459    55747.803     392.5654   -436.10802    597.95324    161.84522    679.24962   -436.10802            0   -9.3939047            0            0            0            0            0            0 
10098000    728.37052    54521.159    408.62309   -440.23158    622.41221    182.18063    761.33366   -440.23158            0   -9.6052533            0            0            0            0            0            0 
10099000    666.95343    56991.211    408.50475   -415.11108    622.23195    207.12088    761.46479   -415.11108            0   -9.1889527            0            0            0            0            0            0 
10100000    736.22135    56402.458    395.94294   -413.09764    603.09788    190.00024    795.59531   -413.09764            0   -9.2848709            0            0            0            0            0            0 
10101000    728.04432    55981.772    381.99284   -414.12212    581.84918    167.72706    762.12917   -414.12212            0    -9.354644            0            0            0            0            0            0 
10102000    708.40242    56821.238     432.4702    -413.2585    658.73598    245.47748    832.51602    -413.2585            0   -9.2164403            0            0            0            0            0            0 
10103000    757.66202    54947.769    394.35443   -423.85617    600.67828    176.82212    783.97976   -423.85617            0    -9.530679            0            0            0            0            0            0 
10104000    618.32164    56856.462    412.59133   -426.44158    628.45661    202.01503    714.72312   -426.44158            0   -9.2107304            0            0            0            0            0            0 
10105000    789.00303    52738.305    426.89605    -445.3132    650.24547    204.93227    811.78139    -445.3132            0   -9.9299655            0            0            0            0            0            0 
10106000    649.38545    53905.318    399.80332    -450.7611    608.97799    158.21689    668.73371    -450.7611            0   -9.7149885            0            0            0            0            0            0 
10107000    542.29716    57027.297    367.75991    -418.3376    560.16966    141.83206    592.85227    -418.3376            0   -9.1831381            0            0            0            0            0            0 
10108000    622.35317    56725.559     398.2706   -428.69069    606.64336    177.95266    692.81554   -428.69069            0   -9.2319856            0            0            0            0            0            0 
10109000    728.26501    54082.404    407.35346   -443.56233    620.47833    176.91599    751.32511   -443.56233            0   -9.6831779            0            0            0            0            0            0 
10110000    643.66574     57664.39     398.2085   -411.99953    606.54876    194.54924    735.85666   -411.99953            0   -9.0816802            0            0            0            0            0            0 
10111000    834.56783    55509.954     401.1078   -407.60172    610.96497    203.36325    878.99243   -407.60172            0   -9.4341556            0            0            0            0            0            0 
10112000    775.15648    53332.049    396.26034   -437.66688    603.58135    165.91447    768.82593   -437.66688            0   -9.8194154            0            0            0            0            0            0 
10113000    718.12851    54997.783    375.94427   -419.72867    572.63603    152.90736    728.90837   -419.72867            0    -9.522012            0            0            0            0            0            0 
10114000    688.57463    56197.114    363.27486   -410.57642    553.33807    142.76165    707.10176   -410.57642            0   -9.3187979            0            0            0            0            0            0 
10115000    683.70456    54765.455    393.46528   -435.63363    599.32393     163.6903    709.76376   -435.63363            0   -9.5624066            0            0            0            0            0            0 
10116000    694.12932    55124.825    396.44606    -427.7922    603.86424    176.07204     734.1097    -427.7922            0   -9.5000672            0            0            0            0            0            0 
10117000    707.33199    55025.464    399.35672   -426.04049    608.29773    182.25724    749.88405   -426.04049            0   -9.5172218            0            0            0            0            0            0 
10118000    750.83347    56589.217    399.42923   -409.29442    608.40819    199.11377    818.77339   -409.29442            0   -9.2542285            0            0            0            0            0            0 
10119000    764.14761    56969.895    442.35034   -402.83833    673.78535    270.94702    905.83713   -402.83833            0   -9.1923909            0            0            0            0            0            0 
10120000    596.80042    57431.831    412.52594   -419.57312    628.35701     208.7839    708.65459   -419.57312            0   -9.1184546            0            0            0            0            0            0 
10121000    828.74047      53671.9    398.66655   -424.35234    607.24648    182.89414    831.59042   -424.35234            0   -9.7572387            0            0            0            0            0            0 
10122000    689.30644    59879.792    375.02421   -376.38522     571.2346    194.84938    796.81059   -376.38522            0   -8.7456808            0            0            0            0            0            0 
10123000    665.19738    55332.638    385.49063    -426.2481      587.177     160.9289    697.72307    -426.2481            0   -9.4643879            0            0            0            0            0            0 
10124000    644.03923    55119.707    407.12344   -437.22014    620.12796    182.90782    700.62801   -437.22014            0   -9.5009494            0            0            0            0            0            0 
10125000    696.36253    55732.025    410.55796   -422.92374     625.3594    202.43566    768.43524   -422.92374            0   -9.3965641            0            0            0            0            0            0 
10126000    609.84181     56533.42    404.84621   -429.03791    616.65929    187.62139    690.42494   -429.03791            0   -9.2633622            0            0            0            0            0            0 
10127000    689.04933    56094.422    406.05877     -423.614    618.50626    194.89226    758.58946     -423.614            0   -9.3358578            0            0            0            0            0            0 
10128000    644.11036    57059.918    426.10355   -415.97129    649.03834    233.06705    769.07017   -415.97129            0   -9.1778881            0            0            0            0            0            0 
10129000    678.92549    54058.365    387.09449    -449.4473    589.61998    140.17268    675.42789    -449.4473            0   -9.6874841            0            0            0            0            0            0 
10130000    631.21332    56901.218    360.70566   -424.08812    549.42467    125.33654    649.14633   -424.08812            0   -9.2034857            0            0            0            0            0            0 
10131000    697.98564    54138.266    397.64129   -437.82425     605.6848    167.86055    718.95587   -437.82425            0   -9.6731865            0            0            0            0            0            0 
10132000     798.1405    54018.464    397.98223   -429.74866    606.20412    176.45546    805.23365   -429.74866            0   -9.6946397            0            0            0            0            0            0 
10133000    701.92787        55021    403.28546   -429.36405    614.28197    184.91792    748.16229   -429.36405            0   -9.5179939            0            0            0            0            0            0 
10134000    635.40014     55749.91    393.45766    -427.0782    599.31233    172.23413    688.84955    -427.0782            0   -9.3935496            0            0            0            0            0            0 
10135000    675.34329     58528.17      374.354   -396.29959    570.21375    173.91416    750.36917   -396.29959            0   -8.9476494            0            0            0            0            0            0 
10136000    698.53506     54662.05    391.94217   -439.27374    597.00393    157.73019     714.5953   -439.27374            0   -9.5804959            0            0            0            0            0            0 
10137000    623.68149    55748.796    410.82966   -428.18345    625.77325     197.5898    704.66718   -428.18345            0   -9.3937373            0            0            0            0            0            0 
10138000    708.11194    55881.886    395.15263    -429.0484    601.89409    172.84569    749.94274    -429.0484            0    -9.371365            0            0            0            0            0            0 
10139000    601.37153    56246.438    365.89151   -426.77346    557.32373    130.55028     623.8533   -426.77346            0    -9.310626            0            0            0            0            0            0 
10140000    707.76299    54931.955    388.17256    -423.2453    591.26209    168.01679    735.02427    -423.2453            0   -9.5334228            0            0            0            0            0            0 
10141000    645.45918    54741.637    402.37049   -444.88939    612.88829     167.9989    683.30164   -444.88939            0   -9.5665671            0            0            0            0            0            0 
10142000    785.56859    54798.108    391.91802   -421.13828    596.96716    175.82888    803.63502   -421.13828            0   -9.5567086            0            0            0            0            0            0 
10143000    630.19113    57840.061    375.39273   -406.13652    571.79593     165.6594    697.24955   -406.13652            0   -9.0540973            0            0            0            0            0            0 
10144000    746.31268    54835.723    412.47696   -423.45862    628.28241    204.82378    801.66703   -423.45862            0    -9.550153            0            0            0            0            0            0 
10145000    587.50229    56879.858    407.99992   -422.06391      621.463    199.39908    686.75243   -422.06391            0   -9.2069419            0            0            0            0            0            0 
10146000     658.5249    56926.454    402.19932   -417.98121    612.62757    194.64636    741.36291   -417.98121            0   -9.1994058            0            0            0            0            0            0 
10147000    628.15055    56224.708    364.99228   -418.35381    555.95402    137.60021    652.67091   -418.35381            0   -9.3142243            0            0            0            0            0            0 
10148000    731.31183    54223.521    396.22159   -434.68226    603.52232    168.84005    747.15738   -434.68226            0   -9.6579774            0            0            0            0            0            0 
10149000    612.74885    57753.194    407.65764   -416.88161    620.94165    204.06004    720.16068   -416.88161            0   -9.0677157            0            0            0            0            0            0 
10150000     702.3016     55205.56    399.49094   -428.64023    608.50217    179.86194    745.29653   -428.64023            0   -9.4861739            0            0            0            0            0            0 
10151000    761.21305    54567.166    401.24515   -425.92499    611.17418    185.24919    791.02721   -425.92499            0    -9.597155            0            0            0            0            0            0 
10152000    580.89706    57103.305    377.69199   -424.02774    575.29815    151.27041    635.03748   -424.02774            0   -9.1709149            0            0            0            0            0            0 
10153000     1016.876     52150.11    407.74069   -435.73665    621.06814    185.33149    958.72251   -435.73665            0   -10.041964            0            0            0            0            0            0 
10154000     678.9591    55428.296    407.74139   -433.61224    621.06921    187.45698    736.30364   -433.61224            0   -9.4480541            0            0            0            0            0            0 
10155000    800.99234    54218.878     405.6512   -425.89506    617.88544    191.99038    825.35643   -425.89506            0   -9.6588045            0            0            0            0            0            0 
10156000    674.01278    57046.554    397.10528   -414.42584    604.86836    190.44251    751.19787   -414.42584            0   -9.1800382            0            0            0            0            0            0 
10157000    587.90947    56953.954    395.55785   -426.28056    602.51132    176.23076    664.55718   -426.28056            0   -9.1949638            0            0            0            0            0            0 
10158000    655.00382    54682.374    394.82791   -442.07181    601.39948    159.32766    681.68426   -442.07181            0   -9.5769351            0            0            0            0            0            0 
10159000     528.3169    59944.165    394.20447    -405.5569    600.44985    194.89295    656.76036    -405.5569            0   -8.7362889            0            0            0            0            0            0 
10160000     746.5192    54509.274    410.71454   -430.91259    625.59789    194.68531    788.13959   -430.91259            0   -9.6073477            0            0            0            0            0            0 
10161000    717.43811    56164.811    389.76423   -421.99943    593.68651    171.68709    759.34507   -421.99943            0   -9.3241575            0            0            0            0            0            0 
10162000    665.87205    55640.899    377.64974   -423.13099     575.2338     152.1028    692.43496   -423.13099            0   -9.4119533            0            0            0            0            0            0 
10163000    607.03619    58372.577    377.78228   -403.28538    575.43568     172.1503    688.92274   -403.28538            0   -8.9714995            0            0            0            0            0            0 
10164000    554.52288    54808.321    397.65771   -451.50315    605.70981    154.20665    597.44963   -451.50315            0   -9.5549277            0            0            0            0            0            0 
10165000    613.12096    55009.673    384.84324   -439.02689     586.1909    147.16401    639.04622   -439.02689            0   -9.5199537            0            0            0            0            0            0 
10166000    636.43074    57038.739    373.75961    -419.0137    569.30838    150.29468    679.71055    -419.0137            0    -9.181296            0            0            0            0            0            0 
10167000    628.21442    56041.853    396.50327   -417.26844    603.95138    186.68294    700.13071   -417.26844            0    -9.344615            0            0            0            0            0            0 
10168000    715.33899    56918.784    419.27652   -418.44394    638.63945    220.19552    813.99991   -418.44394            0   -9.2006453            0            0            0            0            0            0 
10169000    748.50821    56170.352    427.97513   -416.31438    651.88912    235.57475    848.74292   -416.31438            0   -9.3232378            0            0            0            0            0            0 
10170000     696.3807    55611.212     391.0052   -427.36421    595.57675    168.21254     732.9999   -427.36421            0   -9.4169778            0            0            0            0            0            0 
10171000    783.49207     54301.16    388.88849   -430.40254     592.3526    161.95006    782.41836   -430.40254            0   -9.6441687            0            0            0            0            0            0 
10172000    590.12816    57272.328    413.93011   -422.46815    630.49584    208.02769    700.93704   -422.46815            0   -9.1438494            0            0            0            0            0            0 
10173000    702.77613    53776.425    393.07978   -437.75817    598.73674    160.97857    712.14762   -437.75817            0   -9.7382738            0            0            0            0            0            0 
10174000    575.38149    56271.242    394.98464   -426.19096    601.63821    175.44725    647.63887   -426.19096            0   -9.3065219            0            0            0            0            0            0 
10175000    575.23898    56758.076    396.24048   -430.41483     603.5511    173.13628    649.29513   -430.41483            0   -9.2266966            0            0            0            0            0            0 
10176000    727.21936     54999.33    385.22822   -427.97461     586.7773    158.80268    742.11174   -427.97461            0   -9.5217441            0            0            0            0            0            0 
10177000    675.99135    57168.121    422.60453    -409.7805    643.70866    233.92816    797.52811    -409.7805            0    -9.160517            0            0            0            0            0            0 
10178000    836.30635    55758.788    387.53906   -395.48875    590.29715     194.8084    874.87996   -395.48875            0   -9.3920539            0            0            0            0            0            0 
10179000    624.97382    56951.167    394.58169   -418.11067    601.02444    182.91377      702.001   -418.11067            0   -9.1954137            0            0            0            0            0            0 
10180000    611.92996    55695.966    389.12629   -429.52465     592.7148    163.19016    660.24161   -429.52465            0   -9.4026477            0            0            0            0            0            0 
10181000    803.92687    54677.672    378.30618   -418.49984    576.23367    157.73383    798.79939   -418.49984            0   -9.5777587            0            0            0            0            0            0 
10182000    691.10238    56728.862    367.86428   -411.85112    560.32865    148.47753    720.24882   -411.85112            0   -9.2314481            0            0            0            0            0            0 
10183000    616.76691    56865.279    387.60561   -421.56023    590.39852    168.83829    680.33651   -421.56023            0   -9.2093023            0            0            0            0            0            0 
10184000    616.06917    55074.733    408.00879   -438.84072    621.47651    182.63579    677.46777   -438.84072            0   -9.5087079            0            0            0            0            0            0 
10185000     730.2553    55791.644    399.00345    -417.2021    607.75963    190.55753    784.73991    -417.2021            0   -9.3865229            0            0            0            0            0            0 
10186000    631.46381    56804.478    417.59654   -417.56175    636.08051    218.51876    741.64551   -417.56175            0   -9.2191596            0            0            0            0            0            0 
10187000    690.19629    53116.154    379.97511   -454.40907    578.77578    124.36671    659.02355   -454.40907            0   -9.8593273            0            0            0            0            0            0 
10188000    690.07105    57681.414    405.66917   -395.47588    617.91282    222.43694    802.94145   -395.47588            0   -9.0789998            0            0            0            0            0            0 
10189000    781.24921     52709.55    407.06545   -448.68601    620.03963    171.35362    771.91139   -448.68601            0   -9.9353825            0            0            0            0            0            0 
10190000     643.2822     57177.51    416.79398   -410.62746    634.85807    224.23061    760.64776   -410.62746            0   -9.1590128            0            0            0            0            0            0 
10191000    688.35067    54452.993      368.052   -433.37707    560.61457    127.23751    673.88504   -433.37707            0   -9.6172775            0            0            0            0            0            0 
10192000    657.16563    53862.516     394.4117   -441.61327    600.76552    159.15225    675.37527   -441.61327            0   -9.7227085            0            0            0            0            0            0 
10193000    567.12393    56558.682    416.88074   -428.17453    634.99021    206.81568    674.60806   -428.17453            0   -9.2592247            0            0            0            0            0            0 
10194000    805.41996    55646.942    397.44945   -407.86828    605.39259    197.52431    851.16576   -407.86828            0   -9.4109312            0            0            0            0            0            0 
10195000    798.94171     56488.22    395.77697    -402.2376    602.84508    200.60747    858.79383    -402.2376            0   -9.2707744            0            0            0            0            0            0 
10196000    593.52414    55404.172    393.06152   -441.02587    598.70892    157.68305    637.25829   -441.02587            0    -9.452168            0            0            0            0            0            0 
10197000    705.64241    54172.195    398.94558     -430.021    607.67148    177.65049    735.14037     -430.021            0   -9.6671281            0            0            0            0            0            0 
10198000    845.05545    55846.614    400.34558   -406.06681    609.80396    203.73715    892.00573   -406.06681            0   -9.3772837            0            0            0            0            0            0 
10199000    906.28888     55106.42    428.48161   -401.78364    652.66059    250.87696     979.2347   -401.78364            0   -9.5032401            0            0            0            0            0            0 
10200000    621.74659    56507.961    403.57998   -430.25588    614.73058     184.4747    696.86268   -430.25588            0   -9.2675358            0            0            0            0            0            0 
10201000    697.30802    55184.024    389.26033    -421.0217    592.91897    171.89728    733.09244    -421.0217            0   -9.4898761            0            0            0            0            0            0 
10202000    778.12567    54030.472    389.77949   -430.83932    593.70975    162.87044    776.01714   -430.83932            0    -9.692485            0            0            0            0            0            0 
10203000     680.5337    55697.658    429.70684   -431.62726    654.52685    222.89959    775.69249   -431.62726            0    -9.402362            0            0            0            0            0            0 
10204000    692.45939    55579.323    379.45287   -429.89815     577.9803    148.08215    709.36716   -429.89815            0   -9.4223808            0            0            0            0            0            0 
10205000    720.45211    56084.113    414.14174   -416.85406    630.81819    213.96413    803.24299   -416.85406            0   -9.3375738            0            0            0            0            0            0 
10206000    702.98106    55025.405     398.1818   -428.22407     606.5081    178.28403    742.41866   -428.22407            0    -9.517232            0            0            0            0            0            0 
10207000    670.30828    57465.625    380.54958   -412.65152    579.65081    166.99929    728.76937   -412.65152            0   -9.1130923            0            0            0            0            0            0 
10208000    612.53961    54858.069    400.37247   -446.53536    609.84492    163.30957    653.37106   -446.53536            0   -9.5462628            0            0            0            0            0            0 
10209000    882.90114    55263.643    380.37628   -398.90997    579.38684    180.47687    892.06301   -398.90997            0   -9.4762038            0            0            0            0            0            0 
10210000     768.3154    55325.771    386.95459   -408.21923    589.40689    181.18766    801.11801   -408.21923            0   -9.4655626            0            0            0            0            0            0 
10211000    565.53549    57184.163    390.21113   -426.28894    594.36723    168.07829    639.71925   -426.28894            0   -9.1579472            0            0            0            0            0            0 
10212000    675.76907    55389.794    396.98473    -430.6756    604.68474    174.00914    719.89764    -430.6756            0   -9.4546217            0            0            0            0            0            0 
10213000    744.37644    55934.315    403.56463   -415.43876     614.7072    199.26844    806.48952   -415.43876            0   -9.3625807            0            0            0            0            0            0 
10214000    769.70481    56840.108    434.54702   -410.32622    661.89938    251.57317    889.62357   -410.32622            0   -9.2133805            0            0            0            0            0            0 
10215000    755.16554    55425.874    415.22404   -418.78273    632.46674    213.68401     824.1066   -418.78273            0   -9.4484671            0            0            0            0            0            0 
10216000    684.73339    56612.588    400.42043   -416.11238    609.91797    193.80559    759.14649   -416.11238            0   -9.2504082            0            0            0            0            0            0 
10217000    705.53781     56333.11    405.31996    -416.1851    617.38091    201.19581     780.8379    -416.1851            0   -9.2963009            0            0            0            0            0            0 
10218000    713.96861    55446.221    404.75471    -420.5573    616.51991    195.96261    773.29638    -420.5573            0   -9.4449997            0            0            0            0            0            0 
10219000    748.96909    53861.441    402.40698   -433.98344    612.94387    178.96043    767.28603   -433.98344            0   -9.7229027            0            0            0            0            0            0 
10220000    736.22238    55018.875    418.16946   -429.41004    636.95318    207.54314    798.28345   -429.41004            0   -9.5183615            0            0            0            0            0            0 
10221000    851.93965    55396.429    397.73933   -405.12457    605.83414    200.70957    888.99169   -405.12457            0   -9.4534893            0            0            0            0            0            0 
10222000     800.9946    54283.485    407.87387   -425.76553    621.27101    195.50548    829.62803   -425.76553            0   -9.6473089            0            0            0            0            0            0 
10223000    718.58347    55761.589    380.25371   -420.25764    579.20015    158.94251    743.31297   -420.25764            0   -9.3915822            0            0            0            0            0            0 
10224000    772.98549    55023.747    379.92314   -422.00384    578.69662    156.69278    776.98652   -422.00384            0   -9.5175187            0            0            0            0            0            0 
10225000    634.35517    56637.927    377.63531   -415.02038    575.21181    160.19144    684.17265   -415.02038            0   -9.2462697            0            0            0            0            0            0 
10226000    771.89668    53057.477    417.90318   -447.53788     636.5476    189.00972    786.29479   -447.53788            0   -9.8702308            0            0            0            0            0            0 
10227000    747.13148    56342.899    401.86981   -399.26264    612.12565    212.86301    826.78348   -399.26264            0   -9.2946858            0            0            0            0            0            0 
10228000    601.71849    58734.778    415.95573   -404.36488    633.58124    229.21636    744.64029   -404.36488            0   -8.9161748            0            0            0            0            0            0 
10229000    683.70126    55359.501    404.45808   -432.10457     616.0681    183.96353    735.95763   -432.10457            0   -9.4597953            0            0            0            0            0            0 
10230000    618.18535    54611.066    371.01704   -441.25024     565.1309    123.88066    616.23214   -441.25024            0   -9.5894401            0            0            0            0            0            0 
10231000    691.75211    56326.753    402.62708   -420.01169    613.27913    193.26743     761.5196   -420.01169            0   -9.2973501            0            0            0            0            0            0 
10232000    669.53656    56029.374    393.52749   -422.13409    599.41869     177.2846    724.38364   -422.13409            0   -9.3466964            0            0            0            0            0            0 
10233000    628.61332    55971.161    409.40866   -424.84629    623.60879     198.7625    711.88823   -424.84629            0   -9.3564173            0            0            0            0            0            0 
10234000     694.8338    55000.365    409.35706   -432.48147    623.53018    191.04871    748.39151   -432.48147            0   -9.5215649            0            0            0            0            0            0 
10235000    572.48174    59924.615    389.17198   -407.62875    592.78441    185.15566    685.46981   -407.62875            0    -8.739139            0            0            0            0            0            0 
10236000    617.46799    56951.287    390.37676   -420.59171    594.61951    174.02779    686.88195   -420.59171            0   -9.1953943            0            0            0            0            0            0 
10237000    756.36287    55896.148    381.54191   -415.00813    581.16232    166.15419    782.73211   -415.00813            0   -9.3689738            0            0            0            0            0            0 
10238000    667.75401    56895.753    382.97382   -417.46963     583.3434    165.87377    719.95348   -417.46963            0   -9.2043697            0            0            0            0            0            0 
10239000    725.47006    55063.175    394.28921   -421.58935    600.57893    178.98958      761.571   -421.58935            0   -9.5107038            0            0            0            0            0            0 
10240000    856.00567    54641.142     419.9462   -423.89998     639.6595    215.75952    897.89761   -423.89998            0   -9.5841617            0            0            0            0            0            0 
10241000    715.08617    55402.082    412.04374   -423.52702    627.62252     204.0955    781.87264   -423.52702            0   -9.4525246            0            0            0            0            0            0 
10242000     715.5244    56440.878    419.87819   -418.46635    639.55591    221.08956    810.06081   -418.46635            0   -9.2785506            0            0            0            0            0            0 
10243000     763.6666    54971.863    383.94621   -416.46244    584.82454    168.36211    780.59991   -416.46244            0   -9.5265016            0            0            0            0            0            0 
10244000    560.01475    56640.756    373.59722   -426.57903    569.06102      142.482    605.08068   -426.57903            0   -9.2458078            0            0            0            0            0            0 
10245000    743.74167     54712.35    416.41861    -432.7254    634.28631    201.56091    795.00987    -432.7254            0    -9.571688            0            0            0            0            0            0 
10246000    815.28164    55715.689     399.8326   -401.63801    609.02259    207.38458    869.84672   -401.63801            0   -9.3993191            0            0            0            0            0            0 
10247000    584.54732    55345.785     404.9035   -439.49293    616.74656    177.25363    649.07772   -439.49293            0   -9.4621397            0            0            0            0            0            0 
10248000    570.68519    58349.857     425.4013   -419.79826    647.96868    228.17043    713.80801   -419.79826            0   -8.9749928            0            0            0            0            0            0 
10249000    752.39518    54348.748    413.94321   -428.58184    630.51579    201.93395    798.29797   -428.58184            0   -9.6357242            0            0            0            0            0            0 
10250000    633.90683    56371.876    376.92069   -424.26271    574.12331    149.86059    671.01187   -424.26271            0   -9.2899081            0            0            0            0            0            0 
10251000    697.62546    57080.761    385.18299   -414.25064    586.70839    172.45775    753.20608   -414.25064            0   -9.1745368            0            0            0            0            0            0 
10252000    664.73148    56603.445    394.78115   -418.79654    601.32825    182.53171    731.26967   -418.79654            0   -9.2519023            0            0            0            0            0            0 
10253000    746.60817    54797.813    416.13801   -425.28587     633.8589    208.57303     805.2398   -425.28587            0     -9.55676            0            0            0            0            0            0 
10254000    774.29894    58382.485    412.82969   -384.74461    628.81968    244.07507    903.35087   -384.74461            0   -8.9699769            0            0            0            0            0            0 
10255000    592.26123    56116.786    391.54663   -429.20293    596.40145    167.19853    651.90853   -429.20293            0   -9.3321372            0            0            0            0            0            0 
10256000     539.6286     54560.91     390.2602   -454.02717    594.44197     140.4148    569.80531   -454.02717            0   -9.5982553            0            0            0            0            0            0 
10257000    601.00496    57218.166    388.79846   -414.77323    592.21545    177.44222    678.96178   -414.77323            0   -9.1525049            0            0            0            0            0            0 
10258000    681.43423    56692.274    400.00109   -423.49467    609.27924    185.78456    749.19348   -423.49467            0   -9.2374058            0            0            0            0            0            0 
10259000    710.44276    52719.099    425.79749   -465.32679    648.57215    183.24536    729.47211   -465.32679            0    -9.933583            0            0            0            0            0            0 
10260000    746.86164    56237.072    401.13255   -412.53383    611.00267    198.46883    811.01489   -412.53383            0   -9.3121765            0            0            0            0            0            0 
10261000    745.21255    53993.985    412.73211   -438.37124    628.67104     190.2998    777.11509   -438.37124            0    -9.699035            0            0            0            0            0            0 
10262000    706.51126    54901.405       388.03    -425.1066    591.04494    165.93834    731.62825    -425.1066            0   -9.5387275            0            0            0            0            0            0 
10263000    626.70154    56939.716    391.65143   -421.01571    596.56108    175.54537    695.96293   -421.01571            0   -9.1972631            0            0            0            0            0            0 
10264000    652.73519    56131.307    388.05954   -425.79653    591.08995    165.29341    699.63388   -425.79653            0   -9.3297231            0            0            0            0            0            0 
10265000    813.52566    53155.608    410.38599   -438.93457    625.09745    186.16289    816.82426   -438.93457            0   -9.8520094            0            0            0            0            0            0 
10266000    694.43938    54109.425    412.79507   -445.61248    628.76695    183.15447    731.15774   -445.61248            0   -9.6783424            0            0            0            0            0            0 
10267000    636.21694    57006.315    392.14765   -427.43867    597.31693    169.87825    698.81542   -427.43867            0   -9.1865182            0            0            0            0            0            0 
10268000     607.8426    53698.706    413.94255   -459.20759    630.51477    171.30718    647.33337   -459.20759            0   -9.7523681            0            0            0            0            0            0 
10269000     630.0383    55559.742    391.88847   -432.93618    596.92214    163.98596    674.49456   -432.93618            0   -9.4257015            0            0            0            0            0            0 
10270000    619.51964    57296.406    404.86166   -423.26276    616.68282    193.42006    711.09644   -423.26276            0   -9.1400069            0            0            0            0            0            0 
10271000    712.69297    54244.283    402.75683   -436.23069    613.47676    177.24607     741.0555   -436.23069            0   -9.6542809            0            0            0            0            0            0 
10272000    641.83453    55985.731    409.27964   -431.98257    623.41227     191.4297    715.48404   -431.98257            0   -9.3539824            0            0            0            0            0            0 
10273000    812.20097    55739.063    419.59154   -404.12454    639.11928    234.99475    895.23053   -404.12454            0   -9.3953776            0            0            0            0            0            0 
10274000    603.25448    59281.368    412.35476   -402.84528    628.09626    225.25098    746.79944   -402.84528            0   -8.8339653            0            0            0            0            0            0 
10275000     640.5386    54334.997    380.41658   -446.87628    579.44823    132.57195    640.14768   -446.87628            0   -9.6381628            0            0            0            0            0            0 
10276000    620.56805    56185.981    399.34405   -429.06263    608.27844    179.21581    687.71851   -429.06263            0   -9.3206444            0            0            0            0            0            0 
10277000    628.44282    56932.009     395.8014   -421.46596     602.8823    181.41634    703.20925   -421.46596            0    -9.198508            0            0            0            0            0            0 
10278000    681.65274    56160.436     383.7932   -420.19932    584.59148    164.39216    722.69462   -420.19932            0   -9.3248839            0            0            0            0            0            0 
10279000    616.35326    56248.857    404.16411   -429.56624    615.62032    186.05408    691.66831   -429.56624            0   -9.3102256            0            0            0            0            0            0 
10280000    843.82402    57381.308    392.54246   -392.63978    597.91829     205.2785    911.43055   -392.63978            0   -9.1264832            0            0            0            0            0            0 
10281000    655.51152    56821.701    430.55707   -418.78587    655.82191    237.03605    780.24941   -418.78587            0   -9.2163652            0            0            0            0            0            0 
10282000    710.79491     55597.86    395.38171   -419.65494    602.24302    182.58807    758.92743   -419.65494            0   -9.4192392            0            0            0            0            0            0 
10283000    794.87183    56673.145    393.62762   -400.50657    599.57121    199.06464    856.04186   -400.50657            0   -9.2405238            0            0            0            0            0            0 
10284000     702.1548    53937.112    412.51929   -439.99501    628.34687    188.35186    740.67909   -439.99501            0   -9.7092618            0            0            0            0            0            0 
10285000    700.81174    54208.319    409.27336   -440.06253    623.40271    183.34017    737.38283   -440.06253            0   -9.6606859            0            0            0            0            0            0 
10286000    708.14232     55372.54    393.16028   -428.26947    598.85936    170.58988    742.45142   -428.26947            0   -9.4575678            0            0            0            0            0            0 
10287000    719.20032    56398.098    395.09151   -407.73744      601.801    194.06356    785.61187   -407.73744            0   -9.2855888            0            0            0            0            0            0 
10288000    742.78656     56249.36    388.64289   -407.69375    591.97849    184.28473    793.62168   -407.69375            0   -9.3101422            0            0            0            0            0            0 
10289000    580.87819    57661.145    407.87099   -408.80293    621.26661    212.46368     700.9408   -408.80293            0   -9.0821912            0            0            0            0            0            0 
10290000    780.48679    53294.696     378.9104   -435.04786    577.15403    142.10616    748.73832   -435.04786            0   -9.8262977            0            0            0            0            0            0 
10291000    873.28946    57151.884    380.94956   -381.26516    580.26006     198.9949    926.88306   -381.26516            0   -9.1631195            0            0            0            0            0            0 
10292000    666.24984    56042.312    402.86912   -426.76496    613.64779    186.88284    731.42191   -426.76496            0   -9.3445386            0            0            0            0            0            0 
10293000     688.2422    57334.502    398.71201    -419.8559    607.31571     187.4598    762.94378    -419.8559            0   -9.1339338            0            0            0            0            0            0 
10294000     692.5176    53337.134    376.01139    -446.8685    572.73826    125.86976    664.55662    -446.8685            0   -9.8184793            0            0            0            0            0            0 
10295000    732.24035    55817.007    401.28428   -411.54068    611.23378     199.6931    795.76149   -411.54068            0   -9.3822577            0            0            0            0            0            0 
10296000    624.33669    55823.703    380.04716   -430.31704    578.88553    148.56849    656.86062   -430.31704            0   -9.3811324            0            0            0            0            0            0 
10297000    675.24243    57780.593    419.69007   -412.53887    639.26936    226.73049    795.73749   -412.53887            0   -9.0634159            0            0            0            0            0            0 
10298000    585.25237    59091.933    391.39827   -407.70972    596.17547    188.46575    692.83345   -407.70972            0    -8.862285            0            0            0            0            0            0 
10299000    671.47287    54650.742    405.31445   -439.98525    617.37251    177.38726    712.56793   -439.98525            0   -9.5824783            0            0            0            0            0            0 
10300000    724.51893    54927.747    394.62048   -429.59398    601.08352    171.48953    751.87618   -429.59398            0   -9.5341531            0            0            0            0            0            0 
10301000    720.92844    58044.777    414.96743   -395.17773    632.07587    236.89814    847.18103   -395.17773            0   -9.0221648            0            0            0            0            0            0 
10302000     685.2648    57209.592    397.67776   -412.86779    605.74035    192.87256     764.6186   -412.86779            0   -9.1538766            0            0            0            0            0            0 
10303000    754.67775    54563.477    409.67968    -435.0442    624.02161    188.97741      789.514    -435.0442            0   -9.5978038            0            0            0            0            0            0 
10304000    732.07889    55459.081    404.68709   -412.13291    616.41692    204.28401    796.39953   -412.13291            0   -9.4428097            0            0            0            0            0            0 
10305000    584.23324    55794.507    418.98014   -433.39112      638.188    204.79689    680.19078   -433.39112            0   -9.3860413            0            0            0            0            0            0 
10306000    595.44834    58287.642    406.88773   -409.38624    619.76893    210.38269    716.55276   -409.38624            0   -8.9845725            0            0            0            0            0            0 
10307000    753.83808    55239.591     398.9399   -420.23133    607.66283     187.4315    794.73309   -420.23133            0   -9.4803298            0            0            0            0            0            0 
10308000    784.79922    53982.822     394.7202   -422.18424    601.23541    179.05117    796.91111   -422.18424            0   -9.7010405            0            0            0            0            0            0 
10309000    639.43307    58857.791    398.90523   -399.06505    607.61002    208.54498    757.42186   -399.06505            0   -8.8975399            0            0            0            0            0            0 
10310000    672.28537    55100.049    391.19315   -426.06469    595.86304    169.79835    710.03189   -426.06469            0    -9.504339            0            0            0            0            0            0 
10311000    657.04577    56526.646    406.04929    -422.2002    618.49182    196.29162    737.94908    -422.2002            0   -9.2644723            0            0            0            0            0            0 
10312000    707.24923    54311.599    396.92989   -431.34788     604.6012    173.25332    733.45055   -431.34788            0   -9.6423151            0            0            0            0            0            0 
10313000    528.73691    57670.924    388.42819   -424.90664    591.65146    166.74482    611.45025   -424.90664            0   -9.0806512            0            0            0            0            0            0 
10314000    667.67722     56706.41    411.28212   -418.07228    626.46243    208.39015    760.56243   -418.07228            0   -9.2351031            0            0            0            0            0            0 
10315000    805.88972     55050.68     434.9026   -417.76092      662.441    244.68008    891.69485   -417.76092            0   -9.5128625            0            0            0            0            0            0 
10316000     505.4249    57861.302    407.57565    -427.3348    620.81676    193.48196    619.98361    -427.3348            0   -9.0507737            0            0            0            0            0            0 
10317000    781.41934    53891.882    377.47737   -430.92626    574.97124    144.04498    758.20762   -430.92626            0   -9.7174106            0            0            0            0            0            0 
10318000    675.11149    57924.649    420.17215   -404.47114    640.00367    235.53253    805.84754   -404.47114            0   -9.0408756            0            0            0            0            0            0 
10319000    691.79934    56618.167    414.58703   -416.83191    631.49645    214.66454    785.89564   -416.83191            0   -9.2494966            0            0            0            0            0            0 
10320000    708.33258    52909.952    364.05991   -453.23267    554.53385    101.30118    647.87708   -453.23267            0   -9.8977512            0            0            0            0            0            0 
10321000    667.79239    55294.516     418.1895   -431.65284    636.98371    205.33087    743.84787   -431.65284            0   -9.4709129            0            0            0            0            0            0 
10322000    832.24503    54875.893    410.05752   -416.58618    624.59713    208.01095    874.06381   -416.58618            0   -9.5431622            0            0            0            0            0            0 
10323000    728.01911    56568.897    419.02425    -416.6984    638.25519     221.5568    822.17208    -416.6984            0   -9.2575527            0            0            0            0            0            0 
10324000     663.7672    54796.607    403.61077   -437.73478    614.77747    177.04269    707.49378   -437.73478            0   -9.5569704            0            0            0            0            0            0 
10325000    540.34581     57815.49    387.10891   -418.38485    589.64194    171.25709    626.86566   -418.38485            0   -9.0579453            0            0            0            0            0            0 
10326000    782.33032    55744.853    403.07941   -410.04156    613.96812    203.92656    839.94664   -410.04156            0   -9.3944017            0            0            0            0            0            0 
10327000    739.57587    57084.697    407.81089   -403.31009    621.17508    217.86498    833.57798   -403.31009            0   -9.1739043            0            0            0            0            0            0 
10328000    581.23936    54682.452      395.638   -447.05398     602.6334    155.57943    619.11053   -447.05398            0   -9.5769214            0            0            0            0            0            0 
10329000    647.15888     56539.28    377.46812   -410.96617    574.95716    163.99099    697.61711   -410.96617            0   -9.2624021            0            0            0            0            0            0 
10330000    801.73609    54420.414    393.72236   -425.05339     599.7155    174.66212    810.97272   -425.05339            0   -9.6230349            0            0            0            0            0            0 
10331000    777.32359    54783.096    425.72328   -428.84129    648.45912    219.61783     840.6646   -428.84129            0   -9.5593273            0            0            0            0            0            0 
10332000    633.79603    55750.651    391.38434   -418.63628    596.15426    177.51798    692.83602   -418.63628            0   -9.3934247            0            0            0            0            0            0 
10333000    747.83856    54177.895    379.54353   -435.59434     578.1184    142.52407    733.41302   -435.59434            0    -9.666111            0            0            0            0            0            0 
10334000    687.24664    57765.308    419.41679   -401.80059     638.8531    237.05252    816.02191   -401.80059            0   -9.0658142            0            0            0            0            0            0 
10335000    696.03861    54948.241    403.41996   -427.93051    614.48683    186.55632    744.33642   -427.93051            0    -9.530597            0            0            0            0            0            0 
10336000    707.89827    55149.962    410.65601   -431.26716    625.50875    194.24159    763.60815   -431.26716            0   -9.4957371            0            0            0            0            0            0 
10337000    703.69729    56846.881    407.74178   -410.80901    621.06981    210.26079    793.66346   -410.80901            0   -9.2122828            0            0            0            0            0            0 
10338000    652.42503    55127.396    425.94774   -446.57891    648.80101     202.2221    726.75651   -446.57891            0   -9.4996242            0            0            0            0            0            0 
10339000    607.17955    55871.961    410.37328   -434.54561    625.07809    190.53248    685.28378   -434.54561            0   -9.3730296            0            0            0            0            0            0 
10340000     633.4196    58084.553    393.53508    -410.5401    599.43024    188.89014    725.46218    -410.5401            0   -9.0159865            0            0            0            0            0            0 
10341000    775.27338    55013.227    420.07263   -431.48015    639.85208    208.37193    830.38266   -431.48015            0   -9.5193388            0            0            0            0            0            0 
10342000    763.81522    54688.239    398.72159    -420.7498    607.33031    186.58052    795.77805    -420.7498            0   -9.5759081            0            0            0            0            0            0 
10343000    454.55626    56873.866    398.59041   -438.41503    607.13049    168.71547    545.74579   -438.41503            0   -9.2079118            0            0            0            0            0            0 
10344000    698.41441    54082.643    389.80574   -432.88534    593.74974     160.8644    711.73169   -432.88534            0   -9.6831353            0            0            0            0            0            0 
10345000    751.99289     54567.08    400.36247   -427.27302    609.82969    182.55668     780.9963   -427.27302            0     -9.59717            0            0            0            0            0            0 
10346000    753.27077    56515.955     406.3948   -404.90781    619.01809    214.11028    834.97656   -404.90781            0   -9.2662248            0            0            0            0            0            0 
10347000    653.23492    55375.673    410.60606    -435.8687    625.43266    189.56396    717.11478    -435.8687            0   -9.4570325            0            0            0            0            0            0 
10348000    724.53347    56908.988    388.06531   -413.82473    591.09873    177.27399    778.60722   -413.82473            0   -9.2022292            0            0            0            0            0            0 
10349000    693.14219    58764.582    394.12673   -397.06804    600.33144     203.2634    797.30092   -397.06804            0   -8.9116526            0            0            0            0            0            0 
10350000      689.324    55255.312    389.84556   -423.83634    593.81039    169.97405    725.46031   -423.83634            0   -9.4776326            0            0            0            0            0            0 
10351000    619.98169    57712.966    390.16412   -415.21378    594.29563    179.08185    700.91078   -415.21378            0   -9.0740362            0            0            0            0            0            0 
10352000    756.18553    52594.653    393.35158    -453.1692    599.15074    145.98153    726.00537    -453.1692            0   -9.9570872            0            0            0            0            0            0 
10353000     741.2703    56691.046    401.24253   -399.89001    611.17018    211.28018     824.1482   -399.89001            0   -9.2376059            0            0            0            0            0            0 
[...]
14939000     693.4895    56019.394    383.87764   -416.20004     584.7201    168.52006    735.09086   -416.20004            0   -9.3483614            0            0            0            0            0            0 
14940000    883.17501    52269.417    399.93407   -440.95023    609.17715    168.22692    841.46755   -440.95023            0   -10.019043            0            0            0            0            0            0 
14941000    630.76018    56852.569    377.81166   -417.36617    575.48043    158.11426    681.10049   -417.36617            0   -9.2113611            0            0            0            0            0            0 
14942000    759.96222    55026.603    404.99601   -417.25543    616.88746    199.63203    809.50671   -417.25543            0   -9.5170248            0            0            0            0            0            0 
14943000    878.45057     54961.35     405.9394   -405.13168    618.32443    213.19275    917.31912   -405.13168            0    -9.528324            0            0            0            0            0            0 
14944000    840.40759    55312.389    421.98954   -409.37041     642.7719    233.40149    911.33683   -409.37041            0   -9.4678525            0            0            0            0            0            0 
14945000    654.13707    55112.681    405.47384   -440.30058     617.6153    177.31472    703.08519   -440.30058            0   -9.5021605            0            0            0            0            0            0 
14946000    707.10427    56377.978    390.47296   -410.72031    594.76604    184.04573    765.43746   -410.72031            0   -9.2889026            0            0            0            0            0            0 
14947000    790.47562    54449.811    399.95735   -419.60207    609.21261    189.61055    817.32299   -419.60207            0   -9.6178396            0            0            0            0            0            0 
14948000    712.16461    56088.797    401.39337   -412.42875    611.39995     198.9712    781.52012   -412.42875            0    -9.336794            0            0            0            0            0            0 
14949000     698.6046    54472.206    414.41364   -439.56769    631.23234    191.66465    746.65099   -439.56769            0   -9.6138854            0            0            0            0            0            0 
14950000    665.70013      56404.5    400.78045   -428.19935    610.46636    182.26701    729.87312   -428.19935            0   -9.2845348            0            0            0            0            0            0 
14951000    640.33952    54173.147    379.30864   -444.19669    577.76063    133.56394    639.47044   -444.19669            0   -9.6669581            0            0            0            0            0            0 
14952000    683.57086    55823.403    384.24758   -424.02409    585.28358    161.25949    717.77303   -424.02409            0   -9.3811827            0            0            0            0            0            0 
14953000    651.40293     55950.93    400.13865   -427.60145    609.48876    181.88731    713.42358   -427.60145            0   -9.3598005            0            0            0            0            0            0 
14954000    764.32149     52933.98     393.2586   -444.63827    599.00912    154.37085    744.41771   -444.63827            0   -9.8932584            0            0            0            0            0            0 
14955000    465.32514    59887.709    398.09929   -416.42797    606.38243    189.95446    596.36981   -416.42797            0   -8.7445246            0            0            0            0            0            0 
14956000    754.00859    55401.164    415.53738   -418.70509    632.94401    214.23892    823.45461   -418.70509            0   -9.4526812            0            0            0            0            0            0 
14957000    607.84656    55156.049    384.11995   -437.93118    585.08918      147.158    636.10636   -437.93118            0   -9.4946892            0            0            0            0            0            0 
14958000    698.21232    54548.674    387.22225   -434.88242    589.81459    154.93217    710.38553   -434.88242            0   -9.6004083            0            0            0            0            0            0 
14959000    694.85052    56400.068    404.30555   -422.56696    615.83577     193.2688    764.80916   -422.56696            0   -9.2852645            0            0            0            0            0            0 
14960000    617.13841    55225.615    409.03254    -442.2431    623.03589    180.79279    677.84158    -442.2431            0   -9.4827292            0            0            0            0            0            0 
14961000    686.43862    57586.023    420.72838    -407.9736    640.85091    232.87731    809.37116    -407.9736            0   -9.0940391            0            0            0            0            0            0 
14962000    762.32008    55307.531    389.24699   -421.69201    592.89866    171.20665    786.09678   -421.69201            0   -9.4686843            0            0            0            0            0            0 
14963000    614.06688    58241.204    403.91494   -406.54587    615.24079    208.69492     730.2761   -406.54587            0   -8.9917363            0            0            0            0            0            0 
14964000    787.56952    54600.398    395.24856   -425.89485    602.04021    176.14536    803.27972   -425.89485            0   -9.5913137            0            0            0            0            0            0 
14965000    699.91753    56277.067    385.06215   -412.20565    586.52433    174.31869    748.77131   -412.20565            0   -9.3055586            0            0            0            0            0            0 
14966000    655.44154    56258.591    395.72573   -422.66405    602.76704    180.10299    717.87563   -422.66405            0   -9.3086146            0            0            0            0            0            0 
14967000    745.27127    55564.624    420.47186   -425.02728    640.46019    215.43292    819.36576   -425.02728            0   -9.4248734            0            0            0            0            0            0 
14968000    697.17866     56450.12    417.52579   -415.09708    635.97276    220.87568    794.83993   -415.09708            0   -9.2770315            0            0            0            0            0            0 
14969000    672.24673    54913.176    405.92835   -438.51071    618.30759    179.79689    718.16725   -438.51071            0   -9.5366829            0            0            0            0            0            0 
14970000     676.9558    55495.906    393.72616   -425.19103     599.7213    174.53027    722.42503   -425.19103            0   -9.4365437            0            0            0            0            0            0 
14971000    781.63916    55002.967    392.54202   -422.08532    597.91763    175.83231    802.83343   -422.08532            0   -9.5211145            0            0            0            0            0            0 
14972000    782.46364    55209.413     414.8735   -419.39416    631.93279    212.53863    842.55696   -419.39416            0   -9.4855119            0            0            0            0            0            0 
14973000    789.63612     55398.38    434.14511    -421.8301     661.2872     239.4571    877.42666    -421.8301            0   -9.4531563            0            0            0            0            0            0 
14974000    741.18988    54965.558    398.25415   -419.98205    606.61831    186.63626    780.78613   -419.98205            0   -9.5275945            0            0            0            0            0            0 
14975000    666.36466    56749.499    417.58862   -419.72374    636.06846    216.34472    767.85026   -419.72374            0   -9.2280911            0            0            0            0            0            0 
14976000     683.4373    54696.941     394.0656   -430.43642    600.23833    169.80191    714.97901   -430.43642            0   -9.5743844            0            0            0            0            0            0 
14977000    748.16689    56676.144    372.52813   -398.45588    567.43258     168.9767    787.38409   -398.45588            0   -9.2400348            0            0            0            0            0            0 
14978000    789.58683    53459.194    414.88297    -443.0681    631.94723    188.87913    804.47854    -443.0681            0   -9.7960615            0            0            0            0            0            0 
14979000    715.51261    57659.602    404.06633   -406.13708    615.47139    209.33431    811.01327   -406.13708            0   -9.0824342            0            0            0            0            0            0 
14980000    681.61627    55531.093    397.34576   -426.56667    605.23466    178.66799    730.68448   -426.56667            0   -9.4305643            0            0            0            0            0            0 
14981000    704.59202    56607.694    410.21522   -412.51697    624.83733    212.32036    794.00698   -412.51697            0   -9.2512079            0            0            0            0            0            0 
14982000    643.22036    56581.828    408.93099   -428.70739     622.8812    194.17381    724.95148   -428.70739            0   -9.2554371            0            0            0            0            0            0 
14983000    723.94574     55212.69    411.25382   -426.32223    626.41932    200.09709      783.033   -426.32223            0   -9.4849489            0            0            0            0            0            0 
14984000     769.4897    55148.836    406.98313   -416.71889    619.91424    203.19535    822.08761   -416.71889            0   -9.4959311            0            0            0            0            0            0 
14985000    766.02419    53045.152    383.16794   -446.28764    583.63909    137.35145    729.95475   -446.28764            0   -9.8725242            0            0            0            0            0            0 
14986000    647.40919    58401.237    406.38121   -407.51565    618.99739    211.48174    762.89447   -407.51565            0   -8.9670969            0            0            0            0            0            0 
14987000    768.76294    56941.195    425.46305   -408.10317    648.06273    239.95956    878.36255   -408.10317            0   -9.1970241            0            0            0            0            0            0 
14988000    655.08611    55366.983    397.38731   -438.55866    605.29794    166.73928    695.70209   -438.55866            0    -9.458517            0            0            0            0            0            0 
14989000    583.68381    54308.951     390.3963   -443.65563    594.64927    150.99364    613.29476   -443.65563            0   -9.6427852            0            0            0            0            0            0 
14990000    558.19447    55494.362    384.69394   -440.22543    585.96348    145.73805    597.50066   -440.22543            0   -9.4368064            0            0            0            0            0            0 
14991000    626.31573     57941.73    399.04509   -412.21104    607.82306    195.61202    724.86177   -412.21104            0   -9.0382104            0            0            0            0            0            0 
14992000    709.19033    54728.761    395.13386   -428.75667     601.8655    173.10883    739.15821   -428.75667            0   -9.5688178            0            0            0            0            0            0 
14993000    761.46509    57617.449    394.61704   -395.54348    601.07828     205.5348    845.38736   -395.54348            0    -9.089079            0            0            0            0            0            0 
14994000    591.51694     55564.98    407.55568   -441.77957    620.78635    179.00678    658.34741   -441.77957            0   -9.4248129            0            0            0            0            0            0 
14995000     791.6289    56457.556    417.84882   -407.42744    636.46479    229.03735    880.84523   -407.42744            0   -9.2758097            0            0            0            0            0            0 
14996000     736.9838    53469.267    400.27108   -438.60729    609.69048    171.08319    745.77903   -438.60729            0    -9.794216            0            0            0            0            0            0 
14997000    688.86068    55725.335    392.75572    -420.6963    598.24314    177.54684    737.38175    -420.6963            0   -9.3976921            0            0            0            0            0            0 
14998000    592.57811    56513.047     377.0009   -419.39871    574.24549    154.84678    643.24066   -419.39871            0   -9.2667016            0            0            0            0            0            0 
14999000    789.41326    54418.815    414.51093   -428.86186    631.38054    202.51868    829.03067   -428.86186            0   -9.6233177            0            0            0            0            0            0 
15000000    778.37285    57512.355    411.37368   -403.63811     626.6019    222.96379    875.83079   -403.63811            0   -9.1056877            0            0            0            0            0            0 
Loop time of 1474 on 8 procs for 5000000 steps with 512 atoms

Pair  time (%) = 837.151 (56.7945)
Bond  time (%) = 0.474564 (0.0321957)
Neigh time (%) = 34.9574 (2.3716)
Comm  time (%) = 442.104 (29.9935)
Outpt time (%) = 0.265053 (0.0179819)
Other time (%) = 159.047 (10.7902)

Nlocal:    64 ave 73 max 56 min
Histogram: 1 0 3 0 1 0 1 0 1 1
Nghost:    1265.88 ave 1287 max 1248 min
Histogram: 1 1 1 1 0 1 2 0 0 1
Neighs:    5746 ave 6714 max 4795 min
Histogram: 1 0 0 3 1 0 0 2 0 1

Total # of neighbors = 45968
Ave neighs/atom = 89.7812
Ave special neighs/atom = 0
Neighbor list builds = 92417
Dangerous builds = 0

Averages
Group Pressure(MPa) Volume(m3) Temperature(K) PE(J) KE(J) ET(J) ET^2(J) H(J) H^2(J^2) V^2(m6) V*H(m3*J) Hconf(J) Uext*Hconf(J^2) V*Hconf(m3*J) Uext(J)
Block1 69.886514201749221797 5.5753153337719405417e-26 399.61200935447288884 -2.9441469454758637899e-18 4.2289686785205389947e-18 1.2848217330446649974e-18 1.6843265959810478213e-36 5.1755768983379298305e-18 2.7044726479286710653e-35 3.1105597540058600264e-51 2.8849625782523911836e-43 9.4660821981739584325e-19 -2.7642247093209669127e-36 5.2718462234105776725e-44 -2.9441469454758637899e-18
Block2 69.786708388530314551 5.5795302295861558115e-26 400.31752517423672089 -2.942928898713649842e-18 4.2364349313711395567e-18 1.293506032657489137e-18 1.7061529864067671913e-36 5.182033894891258758e-18 2.7102087402333874705e-35 3.1153206857234596595e-51 2.8911220586695997232e-43 9.4559896352013094949e-19 -2.7594571721073548909e-36 5.2735063554484391409e-44 -2.942928898713649842e-18
Block3 69.920770460160696302 5.5733936541490715592e-26 400.56141436931960698 -2.9445952772986908236e-18 4.2390159343012096248e-18 1.2944206570025243864e-18 1.7083898906605784105e-36 5.1859784437749008701e-18 2.7149402357861203362e-35 3.1083475273186356696e-51 2.8897580007318857274e-43 9.4696250947367949715e-19 -2.765659312494588772e-36 5.2728032970825571052e-44 -2.9445952772986908236e-18
Block4 69.964723089374516007 5.5699560745784048041e-26 399.64476695075376256 -2.9467016666123519503e-18 4.2293153418975324129e-18 1.2826136752851881663e-18 1.6803499190074984433e-36 5.1743093544622337151e-18 2.7048032572101282072e-35 3.1047212462558381303e-51 2.8820136779181117971e-43 9.449940125647020726e-19 -2.7573698055332439421e-36 5.2621653031510693129e-44 -2.9467016666123519503e-18
Block5 70.204074923248228401 5.5747507846905110326e-26 400.92476431321318842 -2.9442477787030856514e-18 4.2428611529034992304e-18 1.2986133742004116531e-18 1.7223019479616915952e-36 5.2071865258617239059e-18 2.7375832035968356807e-35 3.1099559707791647788e-51 2.9027928180284767769e-43 9.6432537295822409768e-19 -2.8142195195284486016e-36 5.3738244693292250662e-44 -2.9442477787030856514e-18
Ave_blocks 69.952558212612601096 5.5745892153552162906e-26 400.2120960323992449 -2.9445241133607278722e-18 4.2353192077987845802e-18 1.2907950944380557451e-18 1.7003042680035165587e-36 5.1850170234656097241e-18 2.7144016169510287658e-35 3.1097810368165921277e-51 2.8901298267200933603e-43 9.4969781566682649204e-19 -2.7721861037969205571e-36 5.2908291296843732613e-44 -2.9445241133607278722e-18
Stdev_blocks 0.13877108969853166331 3.0939403449631075263e-29 0.5143930386078514605 1.2255715969590976002e-21 5.4436603450296640709e-21 6.070190344163592678e-21 1.5728603061732338778e-38 1.1875018816874791476e-20 1.2214493197825170329e-37 3.434563796551403171e-54 7.1280636330801505597e-46 7.3473707860735133297e-21 2.1233648960841676539e-38 4.1701801479344263035e-46 1.2255715969590976002e-21






Properties
Group rho(kg/m3) Cp(J/K) Cp_conf(J/K) Cp_id(J/K) Cp2(J/K) kT(1/Pa) aP(1/K) aP2(1/K) Cv(J/K) uJT(K/Pa) sos(m/s) Cv2(J/K) uJT2(K/Pa) sos2(m/s) CvNVT(J/K)
Block1 244.63610295837253261 1.1707889563364456557e-19 1.4038547290617273976e-21 3.4505893218496037397e-20 3.5909747947557764794e-20 6.975367090715500619e-09 -0.00047570480009753019195 -0.0004712824614685589544 1.1635609925769151648e-19 -5.667262211476583266e-07 767.89337892208664016 3.5200327903333278726e-20 -1.8449907286619257017e-06 773.19496080932322002 1.5221516413381499806e-20
Block2 244.45129964269239053 1.1236469087517504067e-19 2.7091800461737021866e-21 3.4539496034528067038e-20 3.7248676080701772234e-20 7.1500461307252476238e-09 -0.00016963836148195849296 -0.00020183495389018541962 1.1227479463414899531e-19 -5.3027616308119611392e-07 756.69906757512262629 3.7121417770017877157e-20 -1.6189422373857649348e-06 757.69172832496394676 1.4912738974703383726e-20
Block3 244.72045232309454832 1.1512502108953565305e-19 1.6307519808968956341e-21 3.4551121867752654442e-20 3.618187384864955158e-20 6.73477130155094576e-09 -0.00047943777990018125778 -0.00040429068560274565754 1.143630640507499511e-19 -5.7708845011222750151e-07 781.52956240590242487 3.5640055822694726252e-20 -1.7898374077205506612e-06 784.83756214105369509 1.4835865880909432232e-20
Block4 244.87148511692029729 1.2450830288708800837e-19 4.8394017093427217375e-21 3.4507452493293399831e-20 3.9346854202636120064e-20 7.4192467928217673931e-09 -4.3887305080117901615e-05 -0.00011478518265901666191 1.2450252400397245071e-19 -4.5520252472495940291e-07 741.9268058012352185 3.9307323207925516264e-20 -1.4805423318102759326e-06 742.2825597387165999 1.5986494902025645645e-20
Block5 244.6608769962701615 1.1762481203044056109e-19 3.5448324512985560029e-21 3.4568451402771078255e-20 3.8113283854069635762e-20 7.0364920437529117759e-09 -6.7814529442266949211e-05 -0.00016563094665028550235 1.1761020447160846601e-19 -4.8682926099084483619e-07 762.19589274625593589 3.8026144345365043051e-20 -1.5598092228579229051e-06 763.02132163810028942 1.6178900271957946816e-20
Ave_blocks 244.66804340746998037 1.1734034450317676093e-19 2.8256041833547204413e-21 3.4534483003368246189e-20 3.7360087186722968887e-20 7.0631846719132752961e-09 -0.00024729655520041096683 -0.00027156484605415844458 1.1702133728363427592e-19 -5.2322452401137718329e-07 762.04894149012056914 3.7059053809867289494e-20 -1.6588243856872879847e-06 764.20562653043157297 1.5427103288595583451e-20
Stdev_blocks 0.13578264461189801238 4.0297317908715453693e-21 1.2676961507635783124e-21 2.4510645529434489613e-23 1.2663831496386744884e-21 2.2387715951882065806e-10 0.0001927069226563754361 0.0001401195105251905001 4.1558042457471250316e-21 4.6465155459894334383e-08 13.01687466652830949 1.5140862549300527752e-21 1.3784150184666069034e-07 14.359242342698333772 5.5398844108558116788e-22






