LAMMPS (28 Oct 2012)
Scanning data file ...
Reading data file ...
  orthogonal box = (0 0 0) to (100 100 100)
  2 by 2 by 2 MPI processor grid
  512 atoms
Finding 1-2 1-3 1-4 neighbors ...
  0 = max # of 1-2 neighbors
  0 = max # of 1-3 neighbors
  0 = max # of 1-4 neighbors
  1 = max # of special neighbors
WARNING: Resetting reneighboring criteria during minimization (min.cpp:173)
Setting up minimization ...
Memory usage per processor = 4.05499 Mbytes
Step Temp E_pair E_mol TotEng Press 
       0       480.15    1409.7233            0    2141.0849    445.94867 
     701       480.15   -217.27527            0     514.0863    33.203768 
Loop time of 0.0562884 on 8 procs for 701 steps with 512 atoms

Minimization stats:
  Stopping criterion = energy tolerance
  Energy initial, next-to-last, final = 
         1409.72334813     -217.256630745     -217.275265106
  Force two-norm initial, final = 5034.49 0.337455
  Force max component initial, final = 2457.89 0.147661
  Final line search alpha, max atom move = 0.254892 0.0376377
  Iterations, force evaluations = 701 710

Pair  time (%) = 0.00898537 (15.9631)
Bond  time (%) = 6.76811e-05 (0.12024)
Neigh time (%) = 0.0031423 (5.58249)
Comm  time (%) = 0.0227775 (40.4656)
Outpt time (%) = 0 (0)
Other time (%) = 0.0213156 (37.8685)

Nlocal:    64 ave 74 max 52 min
Histogram: 1 0 0 1 1 2 0 2 0 1
Nghost:    235.125 ave 266 max 224 min
Histogram: 4 0 2 0 0 1 0 0 0 1
Neighs:    316.25 ave 371 max 226 min
Histogram: 1 0 0 1 1 1 0 1 0 3

Total # of neighbors = 2530
Ave neighs/atom = 4.94141
Ave special neighs/atom = 0
Neighbor list builds = 60
Dangerous builds = 0
Setting up run ...
Memory usage per processor = 3.36354 Mbytes
Step Temp E_pair E_mol TotEng Press Volume 
     701       480.15   -217.27527            0     514.0863    33.203768      1000000 
 5000701    496.66055   -329.76106            0    426.74929    720.43301    66454.157 
Loop time of 1338.32 on 8 procs for 5000000 steps with 512 atoms

Pair  time (%) = 718.492 (53.6863)
Bond  time (%) = 0.448073 (0.0334803)
Neigh time (%) = 34.3944 (2.56998)
Comm  time (%) = 422.236 (31.5498)
Outpt time (%) = 4.42266e-05 (3.30465e-06)
Other time (%) = 162.745 (12.1604)

Nlocal:    64 ave 75 max 57 min
Histogram: 1 2 1 1 0 0 2 0 0 1
Nghost:    1158.25 ave 1178 max 1139 min
Histogram: 1 1 1 0 1 1 1 0 1 1
Neighs:    4979.5 ave 5892 max 4415 min
Histogram: 2 0 3 0 0 1 0 1 0 1

Total # of neighbors = 39836
Ave neighs/atom = 77.8047
Ave special neighs/atom = 0
Neighbor list builds = 101408
Dangerous builds = 12
Setting up run ...
Memory usage per processor = 3.96801 Mbytes
Step Press Volume Temp PotEng KinEng TotEng Enthalpy E_vdwl E_coul E_tail E_long E_bond E_angle E_dihed E_impro E_mol 
10000000    720.43301    66454.157    496.66055   -329.76106    756.51035    426.74929    1124.9683   -329.76106            0   -7.8804633            0            0            0            0            0            0 
10001000    644.02352    64616.547    495.85076   -359.06411    755.27686    396.21275    1003.1187   -359.06411            0   -8.1045734            0            0            0            0            0            0 
10002000    727.92238    65223.686    470.52471   -334.85759    716.70039     381.8428    1074.2575   -334.85759            0   -8.0291314            0            0            0            0            0            0 
10003000    813.42053    64116.998    485.70399   -342.91657    739.82137    396.90481    1157.5186   -342.91657            0   -8.1677178            0            0            0            0            0            0 
10004000    730.54143    65150.624    517.46258   -341.58705    788.19586    446.60881    1140.7364   -341.58705            0   -8.0381355            0            0            0            0            0            0 
10005000    716.66622     65031.49    487.55945   -343.05848     742.6476    399.58912     1079.288   -343.05848            0   -8.0528609            0            0            0            0            0            0 
10006000    597.42074    67927.464    477.33113   -336.87215    727.06788    390.19573    982.03201   -336.87215            0   -7.7095406            0            0            0            0            0            0 
10007000    683.53003    64505.213    446.47807   -346.46904    680.07269    333.60365    976.62931   -346.46904            0   -8.1185616            0            0            0            0            0            0 
10008000    664.56461    67322.653    487.29624   -328.21914    742.24668    414.02754    1066.5182   -328.21914            0   -7.7788013            0            0            0            0            0            0 
10009000    701.74318    59734.931    443.33553   -381.98654    675.28599    293.29945    904.63895   -381.98654            0   -8.7668896            0            0            0            0            0            0 
10010000    690.12461    65025.851    489.24241   -353.62351    745.21107    391.58756    1046.0571   -353.62351            0   -8.0535592            0            0            0            0            0            0 
10011000    731.18911    66751.723    478.98037   -326.70156    729.57999    402.87843     1114.695   -326.70156            0   -7.8453337            0            0            0            0            0            0 
10012000    717.87248    64558.073    465.65797   -343.18567     709.2874    366.10172    1041.9882   -343.18567            0   -8.1119142            0            0            0            0            0            0 
10013000    665.38495    66619.791    460.13426   -342.18353    700.87371    358.69019    1005.1658   -342.18353            0   -7.8608704            0            0            0            0            0            0 
10014000    662.56945    71785.061    485.61112   -301.19662    739.67991    438.48329    1132.1349   -301.19662            0   -7.2952442            0            0            0            0            0            0 
10015000    731.87486    63455.888    503.15388   -360.59616    766.40094    405.80478    1083.1104   -360.59616            0   -8.2528125            0            0            0            0            0            0 
10016000    767.99767     62826.04      487.442   -361.69549    742.46869     380.7732    1084.4536   -361.69549            0   -8.3355492            0            0            0            0            0            0 
10017000    709.53305     66440.17    468.72091   -333.77032    713.95285    380.18253    1067.6929   -333.77032            0   -7.8821223            0            0            0            0            0            0 
10018000    654.70017     62904.68    481.34481   -368.93096    733.18149    364.25054    964.87262   -368.93096            0   -8.3251286            0            0            0            0            0            0 
10019000    600.47328    70461.164    502.68725   -322.42262    765.69018    443.26755    1060.3162   -322.42262            0   -7.4323147            0            0            0            0            0            0 
10020000    679.64404    65689.792    471.23093   -351.77348    717.77609    366.00261     1017.114   -351.77348            0   -7.9721602            0            0            0            0            0            0 
10021000    696.89618    66232.577    470.88757    -334.0797     717.2531     383.1734    1056.3293    -334.0797            0   -7.9068272            0            0            0            0            0            0 
10022000    739.75199    64671.026    482.13109   -343.44483    734.37916    390.93433    1088.6392   -343.44483            0   -8.0977461            0            0            0            0            0            0 
10023000     646.2873    63553.646     507.5207   -370.68866    773.05245     402.3638    1001.3847   -370.68866            0    -8.240118            0            0            0            0            0            0 
10024000    556.94019    67589.159    481.11393    -346.0168    732.82983    386.81303    935.79931    -346.0168            0   -7.7481293            0            0            0            0            0            0 
10025000    600.95522    66608.136    452.36938   -344.01976     689.0463    345.02654    928.80125   -344.01976            0   -7.8622459            0            0            0            0            0            0 
10026000    624.58093    64735.905    484.78183   -360.00588    738.41674    378.41086    968.08195   -360.00588            0   -8.0896304            0            0            0            0            0            0 
10027000    708.61274    67194.357    482.27461   -330.74694    734.59777    403.85083    1098.2635   -330.74694            0   -7.7936537            0            0            0            0            0            0 
10028000    744.70187    64804.483     476.5001    -342.3937    725.80206    383.40837    1087.2312    -342.3937            0   -8.0810698            0            0            0            0            0            0 
10029000    758.11869    64559.338    487.34871   -344.68304    742.32661    397.64357    1111.4364   -344.68304            0   -8.1117552            0            0            0            0            0            0 
10030000    576.53408     67670.26    480.80795   -346.00797    732.36376    386.35578    955.33804   -346.00797            0   -7.7388434            0            0            0            0            0            0 
10031000    795.19777    62921.625    467.99242   -353.25144    712.84321    359.59177    1089.3029   -353.25144            0   -8.3228865            0            0            0            0            0            0 
10032000     515.2427    70701.905    468.65741   -342.21879    713.85613    371.63734     902.9117   -342.21879            0   -7.4070075            0            0            0            0            0            0 
10033000    670.36384    64255.493    502.01587    -354.8395    764.66752    409.82802    1038.0263    -354.8395            0   -8.1501132            0            0            0            0            0            0 
10034000    698.31429    65622.773    476.03541   -340.66477    725.09426    384.42949    1052.7448   -340.66477            0   -7.9803019            0            0            0            0            0            0 
10035000    772.49392    64306.989    478.52925   -346.08017    728.89286    382.81269    1107.2972   -346.08017            0   -8.1435868            0            0            0            0            0            0 
10036000    533.04553    68928.762    478.59289   -337.70385    728.98979    391.28593    927.13278   -337.70385            0   -7.5975475            0            0            0            0            0            0 
10037000    778.85751     61718.81    478.67449   -363.56248    729.11408    365.55161    1066.6056   -363.56248            0   -8.4850882            0            0            0            0            0            0 
10038000    674.45693    67874.774    490.95027   -338.45686    747.81247    409.35561    1076.9897   -338.45686            0   -7.7155254            0            0            0            0            0            0 
10039000    680.11344    65262.815    474.12846   -347.62858     722.1896    374.56102     1021.887   -347.62858            0   -8.0243174            0            0            0            0            0            0 
10040000    686.25036    67892.594    477.30586   -326.05285    727.02938    400.97653    1080.4631   -326.05285            0   -7.7135003            0            0            0            0            0            0 
10041000     773.4963    65218.296    489.72027   -336.10769    745.93894    409.83125     1145.536   -336.10769            0    -8.029795            0            0            0            0            0            0 
10042000    688.67211    70174.683    458.15557     -315.823    697.85979    382.03679    1086.8416     -315.823            0   -7.4626563            0            0            0            0            0            0 
10043000    722.07662    68897.246    492.69819   -317.84306    750.47489    432.63184    1158.1713   -317.84306            0   -7.6010229            0            0            0            0            0            0 
10044000    590.12516    62984.334    447.07644   -380.22512    680.98413      300.759    842.82549   -380.22512            0   -8.3146001            0            0            0            0            0            0 
10045000    690.61489    67821.393    470.96094   -320.63198    717.36485    396.73287    1079.8238   -320.63198            0   -7.7215982            0            0            0            0            0            0 
10046000    657.74228    64570.833    480.49202   -360.14971    731.88253    371.73282    991.12832   -360.14971            0   -8.1103111            0            0            0            0            0            0 
10047000    660.39069    65636.067    480.15204   -358.46905    731.36468    372.89563    1005.0445   -358.46905            0   -7.9786857            0            0            0            0            0            0 
10048000    619.28863    66601.013    477.13413   -343.88664    726.76782    382.88118    984.40085   -343.88664            0   -7.8630867            0            0            0            0            0            0 
10049000     633.9518    62556.816    454.76636   -374.23805    692.69736     318.4593    896.83065   -374.23805            0   -8.3714226            0            0            0            0            0            0 
10050000    663.11801    64503.319    488.69857   -366.52053    744.38269    377.86216    1001.6671   -366.52053            0      -8.1188            0            0            0            0            0            0 
10051000     661.6985    66658.394    479.33976   -341.05291    730.12742     389.0745    1032.3409   -341.05291            0    -7.856318            0            0            0            0            0            0 
10052000    625.64438    65137.845    464.16364    -356.5258    707.01124    350.48543    944.82798    -356.5258            0   -8.0397125            0            0            0            0            0            0 
10053000    544.74641    63779.627    454.73526   -375.77613       692.65    316.87387    823.57543   -375.77613            0   -8.2109221            0            0            0            0            0            0 
10054000    539.88484    68414.121    463.15116   -345.17132    705.46903    360.29771    898.96769   -345.17132            0   -7.6546996            0            0            0            0            0            0 
10055000    699.03499    67307.425    485.05509    -328.2958    738.83297    410.53717    1096.7167    -328.2958            0   -7.7805613            0            0            0            0            0            0 
10056000    682.90703    66361.169    493.50648   -339.17904    751.70607    412.52703     1073.451   -339.17904            0   -7.8915057            0            0            0            0            0            0 
10057000    614.74815    64184.142    518.39081   -371.53272    789.60974    418.07702     993.5181   -371.53272            0   -8.1591734            0            0            0            0            0            0 
10058000    674.95065    64350.165    476.17157   -354.37841    725.30166    370.92324    1004.3517   -354.37841            0   -8.1381229            0            0            0            0            0            0 
10059000    713.33763    65090.595    484.61629   -343.05968    738.16459    395.10491    1072.2617   -343.05968            0   -8.0455485            0            0            0            0            0            0 
10060000    715.81516    65928.304    491.83571   -341.64504    749.16117    407.51613      1095.77   -341.64504            0    -7.943319            0            0            0            0            0            0 
10061000    776.42171    64705.877    503.40188   -341.25632     766.7787    425.52237    1158.2074   -341.25632            0   -8.0933846            0            0            0            0            0            0 
10062000    726.88423    66134.893    486.28205   -337.13687    740.70187      403.565    1104.6518   -337.13687            0    -7.918506            0            0            0            0            0            0 
10063000    740.89542    64969.663    499.77701   -336.18986    761.25731    425.06745    1127.0776   -336.18986            0   -8.0605242            0            0            0            0            0            0 
10064000    790.31474    61474.872    493.70684   -364.11029    752.01126    387.90097     1096.456   -364.11029            0   -8.5187578            0            0            0            0            0            0 
10065000    613.11139    66702.246    466.55065   -343.07566    710.64712    367.57146    963.99632   -343.07566            0   -7.8511531            0            0            0            0            0            0 
10066000     660.7195    65974.803    469.63904    -343.9958    715.35134    371.35555    1007.0832    -343.9958            0   -7.9377205            0            0            0            0            0            0 
10067000    679.62054    63348.457    464.01481   -361.80543    706.78455    344.97912    972.86169   -361.80543            0   -8.2668082            0            0            0            0            0            0 
10068000    679.58401    64459.579    476.11107   -350.85163    725.20949    374.35786    1013.2191   -350.85163            0   -8.1243091            0            0            0            0            0            0 
10069000    601.20607    66695.212    481.61208   -346.61197    733.58859    386.97662    971.75849   -346.61197            0   -7.8519811            0            0            0            0            0            0 
10070000    757.19784    62230.796    492.08316   -365.56961    749.53808    383.96847    1071.1803   -365.56961            0   -8.4152796            0            0            0            0            0            0 
10071000     680.4981    65583.913    476.13215   -344.43498    725.24161    380.80662    1031.6854   -344.43498            0   -7.9850306            0            0            0            0            0            0 
10072000    567.30234    66693.733    479.52358   -353.48871    730.40741    376.91869    928.71081   -353.48871            0   -7.8521552            0            0            0            0            0            0 
10073000    758.92082    64232.955    480.22155    -347.6945    731.47056    383.77606    1094.7117    -347.6945            0    -8.152973            0            0            0            0            0            0 
10074000    869.37071    62574.392    513.97041   -347.49102    782.87661    435.38559    1228.7588   -347.49102            0   -8.3690713            0            0            0            0            0            0 
10075000    658.86678    66229.532    466.66888     -343.155    710.82721    367.67222    1004.0649     -343.155            0   -7.9071908            0            0            0            0            0            0 
10076000     707.3226    65004.958    482.99476   -351.55821    735.69468    384.13648       1054.7   -351.55821            0   -8.0561477            0            0            0            0            0            0 
10077000    804.62878    62946.104    488.10107   -345.86428     743.4726    397.60832     1136.261   -345.86428            0   -8.3196498            0            0            0            0            0            0 
10078000    679.65931    65662.049    480.02323   -351.61937    731.16847    379.54909    1030.4001   -351.61937            0   -7.9755285            0            0            0            0            0            0 
10079000    639.87177    65106.936    475.74393   -357.71372    724.65027    366.93655    974.50623   -357.71372            0   -8.0435293            0            0            0            0            0            0 
10080000    595.98784    67136.696    498.56882   -352.78308      759.417    406.63393    990.17744   -352.78308            0   -7.8003474            0            0            0            0            0            0 
10081000    737.30864    62670.588    476.69708   -358.17416     726.1021    367.92794    1041.8179   -358.17416            0   -8.3562251            0            0            0            0            0            0 
10082000    666.42928    65428.508    473.34282   -342.29009    720.99291    378.70283    1014.6148   -342.29009            0   -8.0039964            0            0            0            0            0            0 
10083000    746.12475    65669.036    482.05485   -331.63148    734.26303    402.63154    1117.2068   -331.63148            0     -7.97468            0            0            0            0            0            0 
10084000    671.62496    66144.687    488.16058   -343.26925    743.56323    400.29398    1048.1786   -343.26925            0   -7.9173335            0            0            0            0            0            0 
10085000    682.64589    65751.827    438.78731   -333.93083    668.35816    334.42733    989.03215   -333.93083            0   -7.9646387            0            0            0            0            0            0 
10086000    764.01096    63264.538    482.21336    -352.9271    734.50447    381.57737    1086.4909    -352.9271            0   -8.2777739            0            0            0            0            0            0 
10087000    726.44682    64736.151    474.16949   -349.51407    722.25209    372.73802     1058.584   -349.51407            0   -8.0895997            0            0            0            0            0            0 
10088000    713.96555    68077.219    485.28166   -321.97308    739.17808      417.205     1126.056   -321.97308            0   -7.6925814            0            0            0            0            0            0 
10089000    726.94579    65652.394    501.71254   -340.94502     764.2055    423.26048    1119.2913   -340.94502            0   -7.9767014            0            0            0            0            0            0 
10090000     695.1668    64539.825    476.14468   -360.11353    725.26069    365.14716    1019.4709   -360.11353            0   -8.1142077            0            0            0            0            0            0 
10091000    570.52539    67941.388    453.52794    -346.8567      690.811     343.9543     909.2625    -346.8567            0   -7.7079607            0            0            0            0            0            0 
10092000    715.98683    63225.918     475.4813   -365.62381    724.25023    358.62642    1018.8273   -365.62381            0   -8.2828302            0            0            0            0            0            0 
10093000    608.65462    65686.786    511.57415   -359.51349    779.22664    419.71315    1002.7887   -359.51349            0   -7.9725251            0            0            0            0            0            0 
10094000    675.04736    65142.612    472.14869   -342.96744    719.17402    376.20658    1017.5273   -342.96744            0   -8.0391242            0            0            0            0            0            0 
10095000    710.42131    63550.825    450.84195    -351.6957    686.71972    335.02403    993.45926    -351.6957            0   -8.2404838            0            0            0            0            0            0 
10096000    764.25115    65156.187    480.84467   -340.14628    732.41969     392.2734    1118.4925   -340.14628            0   -8.0374492            0            0            0            0            0            0 
10097000    761.35292    63756.585    477.99937   -340.36959    728.08574    387.71615    1095.6407   -340.36959            0   -8.2138896            0            0            0            0            0            0 
10098000    672.28163    64945.141    479.84117   -360.26157    730.89116     370.6296    1007.3867   -360.26157            0   -8.0635677            0            0            0            0            0            0 
10099000    630.82972    67986.206    466.81576   -335.14018    711.05094    375.91076    1001.3842   -335.14018            0   -7.7028794            0            0            0            0            0            0 
10100000    610.00016    64038.765    462.95343   -369.49597    705.16786     335.6719    905.37526   -369.49597            0   -8.1776959            0            0            0            0            0            0 
10101000    743.27632    63748.427    465.45896   -353.52963    708.98427    355.45464    1046.4827   -353.52963            0   -8.2149407            0            0            0            0            0            0 
10102000    676.94035     65896.69    497.22582   -346.04224    757.37136    411.32912    1061.8929   -346.04224            0   -7.9471298            0            0            0            0            0            0 
10103000     697.6357    63414.578    505.97178   -362.02879    770.69314    408.66436    1053.8634   -362.02879            0   -8.2581885            0            0            0            0            0            0 
10104000    657.26166    63214.409    466.44029   -363.10902    710.47902       347.37     953.3109   -363.10902            0   -8.2843383            0            0            0            0            0            0 
10105000     636.8209    65986.838    455.82666   -343.05324     694.3124    351.25916    964.10397   -343.05324            0   -7.9362728            0            0            0            0            0            0 
10106000    743.30917     65581.56    488.11399   -335.55209    743.49226    407.94017    1118.8706   -335.55209            0    -7.985317            0            0            0            0            0            0 
10107000     592.2614    67763.936     455.1579   -338.72752    693.29376    354.56624    939.87893   -338.72752            0   -7.7281453            0            0            0            0            0            0 
10108000    786.12537    60877.845    452.99962    -374.3489    690.00627    315.65737    1013.6116    -374.3489            0    -8.602301            0            0            0            0            0            0 
10109000    559.33337    67417.587    456.60107   -338.56584    695.49197    356.92613    906.87185   -338.56584            0   -7.7678477            0            0            0            0            0            0 
10110000    662.55367    64190.845    474.42518   -354.46011    722.64156    368.18145    988.43613   -354.46011            0   -8.1583214            0            0            0            0            0            0 
10111000    641.80596    66316.784    473.51441   -344.04193    721.25427    377.21234    997.94285   -344.04193            0   -7.8967874            0            0            0            0            0            0 
10112000    749.42927    65664.321    488.80686   -339.27082    744.54765    405.27683    1122.9653   -339.27082            0   -7.9752526            0            0            0            0            0            0 
10113000    690.21901    63749.109     496.0529   -366.71313    755.58476    388.87163    1030.5788   -366.71313            0   -8.2148528            0            0            0            0            0            0 
10114000    619.40362    63773.479    450.49844     -359.013    686.19649    327.18349     903.2727     -359.013            0   -8.2117136            0            0            0            0            0            0 
10115000    682.40884    65230.239    464.77497   -344.93105    707.94242    363.01137    1012.1979   -344.93105            0   -8.0283248            0            0            0            0            0            0 
10116000    612.36136    62588.877    519.30574   -370.59093    791.00335    420.41242    979.37255   -370.59093            0   -8.3671344            0            0            0            0            0            0 
10117000    598.24021    67292.754    483.16966   -346.29296    735.96109    389.66813    976.77856   -346.29296            0   -7.7822576            0            0            0            0            0            0 
10118000    697.70006    66005.894    483.34133    -344.5331    736.22258    391.68947    1063.3153    -344.5331            0   -7.9339816            0            0            0            0            0            0 
10119000    822.86089    62833.422    523.21434   -356.29629    796.95691    440.66062    1194.6983   -356.29629            0   -8.3345699            0            0            0            0            0            0 
10120000    731.81788    64276.107    492.10634   -353.33354    749.57339    396.23985    1082.2467   -353.33354            0   -8.1474995            0            0            0            0            0            0 
10121000    632.64216    66740.905    490.05194   -346.12002    746.44415    400.32413    1016.1049   -346.12002            0   -7.8466054            0            0            0            0            0            0 
10122000    672.82286    65744.616    485.15501   -346.07178    738.98517    392.91339    1038.0279   -346.07178            0   -7.9655123            0            0            0            0            0            0 
10123000    672.16827    66159.897    481.32039   -348.53468    733.14429    384.60962    1033.1675   -348.53468            0   -7.9155134            0            0            0            0            0            0 
10124000    726.45481    66765.024    484.12186   -328.17941    737.41148    409.23207    1116.5807   -328.17941            0   -7.8437708            0            0            0            0            0            0 
10125000    764.34307    63734.003    498.39058   -348.90711    759.14551     410.2384    1120.6915   -348.90711            0   -8.2167998            0            0            0            0            0            0 
10126000     654.9274    65104.287    480.92341   -353.44069    732.53962    379.09893    1000.9389   -353.44069            0   -8.0438565            0            0            0            0            0            0 
10127000    798.66665     64683.04     532.5248   -346.92425    811.13855    464.21429    1217.6251   -346.92425            0   -8.0962421            0            0            0            0            0            0 
10128000    661.11973    66237.755    483.45052   -348.97288     736.3889    387.41602    1026.0641   -348.97288            0   -7.9062092            0            0            0            0            0            0 
10129000    717.31111    64172.583     466.7464   -347.09848    710.94528     363.8468     1035.172   -347.09848            0   -8.1606431            0            0            0            0            0            0 
10130000    616.10997    70723.368    470.53224   -309.92509    716.71185    406.78677    1042.2597   -309.92509            0   -7.4047597            0            0            0            0            0            0 
10131000    813.92785    62384.502    480.19122   -350.29041    731.42436    381.13395    1121.6569   -350.29041            0   -8.3945455            0            0            0            0            0            0 
10132000    657.55008     64998.51    463.00524   -351.00379    705.24677    354.24299    977.55878   -351.00379            0   -8.0569469            0            0            0            0            0            0 
10133000    633.44286    65407.865    469.68227   -362.80992    715.41719    352.60727     956.8526   -362.80992            0   -8.0065225            0            0            0            0            0            0 
10134000    727.15968    65567.958    497.16196   -344.73429    757.27409     412.5398      1107.88   -344.73429            0   -7.9869735            0            0            0            0            0            0 
10135000    748.06793    66067.712    508.63345   -337.20829    774.74739     437.5391    1158.3249   -337.20829            0   -7.9265579            0            0            0            0            0            0 
10136000    793.64343    63748.669    498.45938   -346.03374    759.25031    413.21656     1151.074   -346.03374            0   -8.2149095            0            0            0            0            0            0 
10137000    737.06653    66406.304    500.82605   -329.30023     762.8552    433.55497    1147.3802   -329.30023            0    -7.886142            0            0            0            0            0            0 
10138000    683.92476    64451.133    497.83409   -366.17282    758.29787    392.12505    1034.9826   -366.17282            0   -8.1253738            0            0            0            0            0            0 
10139000    692.85866    63962.665    476.94201   -362.02853    726.47517    364.44664    1010.7659   -362.02853            0   -8.1874253            0            0            0            0            0            0 
10140000    667.28374      67147.4     479.2042   -335.21713    729.92093     394.7038    1048.1587   -335.21713            0   -7.7991038            0            0            0            0            0            0 
10141000    676.40993    67162.082    479.88799   -340.18282    730.96247    390.77965    1053.3165   -340.18282            0   -7.7973989            0            0            0            0            0            0 
10142000    723.79258     65167.94    485.66596    -344.2491    739.76345    395.51435    1083.4123    -344.2491            0   -8.0359997            0            0            0            0            0            0 
10143000     656.0149    64759.235     467.8047    -352.7122    712.55729    359.84508     979.4164    -352.7122            0   -8.0867161            0            0            0            0            0            0 
10144000    768.23887    65477.095    461.05727   -334.12188    702.27963    368.15775    1101.7615   -334.12188            0   -7.9980571            0            0            0            0            0            0 
10145000    605.17377    65417.085    492.47474   -362.91911    750.13454    387.21543    964.57606   -362.91911            0   -8.0053941            0            0            0            0            0            0 
10146000     745.8919    64161.326    488.68942   -352.82524    744.36876    391.54353    1089.4948   -352.82524            0   -8.1620748            0            0            0            0            0            0 
10147000    720.05433    65317.842    498.67134   -340.95177    759.57316    418.62139    1104.5406   -340.95177            0   -8.0175573            0            0            0            0            0            0 
10148000    823.82838    62730.732    475.03996   -358.40285    723.57799    365.17514    1118.8656   -358.40285            0   -8.3482135            0            0            0            0            0            0 
10149000    674.48619    67264.486      469.327   -330.34548    714.87603    384.53055    1046.1904   -330.34548            0   -7.7855281            0            0            0            0            0            0 
10150000    681.04519    66034.556    469.46259   -340.50673    715.08257    374.57584    1030.4539   -340.50673            0   -7.9305379            0            0            0            0            0            0 
10151000    621.11916    65953.807    499.09258   -345.62034    760.21479    414.59444    1012.0295   -345.62034            0   -7.9402474            0            0            0            0            0            0 
10152000    616.57821    65840.587    465.22994   -355.75697    708.63542    352.87845    944.92759   -355.75697            0   -7.9539015            0            0            0            0            0            0 
10153000    578.48298    69173.212    482.67821    -339.2883    735.21253    395.92422    979.50962    -339.2883            0   -7.5706987            0            0            0            0            0            0 
10154000    633.70977     64199.64    482.45996   -364.02367    734.88008    370.85641    964.18994   -364.02367            0   -8.1572037            0            0            0            0            0            0 
10155000    722.04214    64377.314    484.98782   -358.41511     738.7305    380.31539    1058.2242   -358.41511            0   -8.1346908            0            0            0            0            0            0 
10156000    744.73583    66455.814    489.20116   -332.10929    745.14824    413.03895    1134.8294   -332.10929            0   -7.8802669            0            0            0            0            0            0 
10157000    722.62577     62494.11    459.32741   -370.26813    699.64473     329.3766    987.98676   -370.26813            0   -8.3798224            0            0            0            0            0            0 
10158000    642.36794    65805.665    501.11493   -348.18882    763.29522     415.1064    1031.5921   -348.18882            0   -7.9581225            0            0            0            0            0            0 
10159000    797.60814    63701.589    477.42552   -340.48193    727.21166    386.72972    1127.7255   -340.48193            0   -8.2209809            0            0            0            0            0            0 
10160000    616.00477    68157.599     474.9978   -331.70554    723.51377    391.80823    1004.1223   -331.70554            0   -7.6835093            0            0            0            0            0            0 
10161000     691.8424    64586.586    450.30431   -348.53256    685.90079    337.36823    989.03473   -348.53256            0    -8.108333            0            0            0            0            0            0 
10162000    720.09614    64101.497     500.5308   -349.64991    762.40548    412.75558    1085.9407   -349.64991            0   -8.1696929            0            0            0            0            0            0 
10163000    684.63481    66910.062    514.29805   -346.02899    783.37566    437.34668    1105.4233   -346.02899            0   -7.8267682            0            0            0            0            0            0 
10164000    714.27629    64514.288    491.89297   -354.55828    749.24839    394.69012    1066.7346   -354.55828            0   -8.1174196            0            0            0            0            0            0 
10165000    697.55901    66416.116    477.50544   -331.60935    727.33339    395.72404    1071.3873   -331.60935            0    -7.884977            0            0            0            0            0            0 
10166000    763.59342    66797.993    485.14531   -331.85842     738.9704    407.11198    1150.9896   -331.85842            0   -7.8398994            0            0            0            0            0            0 
10167000    718.90012    63315.143    457.71955   -353.22641    697.19564    343.96923    1007.7918   -353.22641            0   -8.2711579            0            0            0            0            0            0 
10168000    711.92102      65023.9    477.66922   -345.36595    727.58287    382.21692    1057.3365   -345.36595            0   -8.0538009            0            0            0            0            0            0 
10169000    687.73017    66903.278    488.80401   -339.76856     744.5433    404.77473    1075.8038   -339.76856            0   -7.8275618            0            0            0            0            0            0 
10170000    785.11932    64624.596    494.65924   -340.70955    753.46195    412.75241    1152.7144   -340.70955            0   -8.1035639            0            0            0            0            0            0 
10171000    710.69821    65339.753    468.68149   -346.23498    713.89281    367.65783    1044.8916   -346.23498            0   -8.0148687            0            0            0            0            0            0 
10172000    646.30984    64681.547    464.22972   -364.31545    707.11189    342.79643    952.46956   -364.31545            0   -8.0964289            0            0            0            0            0            0 
10173000    729.30661    65614.188    503.80628   -337.24008    767.39467    430.15459    1128.0395   -337.24008            0   -7.9813461            0            0            0            0            0            0 
10174000    740.91155    66751.433    495.15428    -327.7413      754.216    426.47469     1147.753    -327.7413            0   -7.8453679            0            0            0            0            0            0 
10175000     739.9289    64860.506    481.23862   -343.67791    733.01975    389.34184    1089.2583   -343.67791            0   -8.0740897            0            0            0            0            0            0 
10176000    633.05286     66201.57     480.7504   -351.75329     732.2761    380.52281    991.72395   -351.75329            0   -7.9105306            0            0            0            0            0            0 
10177000    623.92928    65906.938    440.68242   -335.49953    671.24479    335.74526    935.45678   -335.49953            0    -7.945894            0            0            0            0            0            0 
10178000    669.42386    64236.338    473.25929   -362.82412    720.86569    358.04157    985.17196   -362.82412            0   -8.1525436            0            0            0            0            0            0 
10179000     770.5098    69473.035    503.12711   -299.55672    766.36016    466.80344    1247.4785   -299.55672            0    -7.538026            0            0            0            0            0            0 
10180000    660.24203     62867.97     481.1871   -378.00082    732.94128    354.94046    960.29316   -378.00082            0   -8.3299898            0            0            0            0            0            0 
10181000    674.59389    65504.912    463.64078   -346.98357    706.21483    359.23125    1003.6856   -346.98357            0   -7.9946606            0            0            0            0            0            0 
10182000    799.82882     62147.42    473.14672   -353.76371    720.69421     366.9305    1091.8604   -353.76371            0   -8.4265694            0            0            0            0            0            0 
10183000    668.18502    67610.268    472.63269   -334.91137    719.91125    384.99988     1043.848   -334.91137            0   -7.7457102            0            0            0            0            0            0 
10184000    728.29313    66802.917    457.50017   -321.22176    696.86148    375.63973    1085.1808   -321.22176            0   -7.8393215            0            0            0            0            0            0 
10185000    694.77109    66407.925    477.60018   -341.05387     727.4777    386.42383    1059.3037   -341.05387            0   -7.8859496            0            0            0            0            0            0 
10186000    685.21713     65459.03    484.45605   -346.04563    737.92051    391.87488    1046.0193   -346.04563            0   -8.0002644            0            0            0            0            0            0 
10187000    691.30298    67722.268    504.88447   -336.59601    769.03697    432.44096    1115.2131   -336.59601            0   -7.7329003            0            0            0            0            0            0 
10188000    559.86112    63510.499    442.66387   -373.47343    674.26292    300.78949    819.35272   -373.47343            0   -8.2457162            0            0            0            0            0            0 
10189000    671.51554    64821.364    474.74551   -351.81184    723.12948    371.31765     1006.137   -351.81184            0   -8.0789652            0            0            0            0            0            0 
10190000    656.61195    65232.062    493.99793   -350.98001    752.45466    401.47464    1026.1376   -350.98001            0   -8.0281005            0            0            0            0            0            0 
10191000    840.08791    62959.974      474.964    -343.3993    723.46228    380.06297    1151.4373    -343.3993            0   -8.3178171            0            0            0            0            0            0 
10192000    774.50755    66941.146    491.46522   -329.13285    748.59685      419.464    1175.5909   -329.13285            0   -7.8231338            0            0            0            0            0            0 
10193000    588.21643    64834.691    457.55042   -367.47323    696.93803     329.4648    885.65135   -367.47323            0   -8.0773046            0            0            0            0            0            0 
10194000    667.42645    66416.473    500.41208   -341.25903    762.22465    420.96561    1067.4456   -341.25903            0   -7.8849346            0            0            0            0            0            0 
10195000     758.1473     64566.15    480.68589   -336.57584    732.17783    395.60198     1109.497   -336.57584            0   -8.1108993            0            0            0            0            0            0 
10196000    720.64153    63856.427    480.49138    -352.8555    731.88155    379.02605    1050.1454    -352.8555            0   -8.2010468            0            0            0            0            0            0 
10197000    708.48277    69346.691    515.18943    -320.7065    784.73342    464.02692    1180.5512    -320.7065            0   -7.5517597            0            0            0            0            0            0 
10198000    732.08305      61437.8    454.64077   -368.92202    692.50607    323.58404     979.5358   -368.92202            0   -8.5238981            0            0            0            0            0            0 
10199000    676.82295    68222.907    500.47667   -335.00796    762.32304    427.31508    1100.7276   -335.00796            0    -7.676154            0            0            0            0            0            0 
10200000     857.8641    64198.256    506.59752   -334.73922    771.64628    436.90705    1240.0958   -334.73922            0   -8.1573797            0            0            0            0            0            0 
10201000    670.25481    66862.721    483.18775    -335.6518    735.98865    400.33684    1053.9185    -335.6518            0   -7.8323098            0            0            0            0            0            0 
10202000    685.29535    64723.412    486.24384   -353.27636    740.64367     387.3673    1034.2344   -353.27636            0   -8.0911919            0            0            0            0            0            0 
10203000    647.56186     65096.05    458.64571   -353.34784    698.60636    345.25851    960.02727   -353.34784            0   -8.0448744            0            0            0            0            0            0 
10204000    632.02195    68616.877    484.75114   -329.79224       738.37    408.57776    1041.0464   -329.79224            0   -7.6320807            0            0            0            0            0            0 
10205000    760.79854     62005.56    498.44201   -364.27684    759.22385    394.94701    1082.9276   -364.27684            0   -8.4458482            0            0            0            0            0            0 
10206000    684.78653    67857.132     495.3986   -331.53602    754.58814    423.05213    1100.7351   -331.53602            0   -7.7175313            0            0            0            0            0            0 
10207000     710.2784    64238.359    483.31405   -353.18124    736.18104     382.9998    1048.4245   -353.18124            0   -8.1522871            0            0            0            0            0            0 
10208000    650.43371    64516.056    496.11601    -362.0004     755.6809     393.6805    1005.6739    -362.0004            0   -8.1171971            0            0            0            0            0            0 
10209000    781.84851    65295.457    472.34136   -339.55286     719.4675    379.91464    1124.4434   -339.55286            0    -8.020306            0            0            0            0            0            0 
10210000    592.93129    68484.181     474.2896   -335.00316    722.43505    387.43188    979.63477   -335.00316            0   -7.6468688            0            0            0            0            0            0 
10211000    679.73153     60845.56    497.82058    -377.0319    758.27729     381.2454    984.41882    -377.0319            0   -8.6068654            0            0            0            0            0            0 
10212000    638.04889    66543.025    482.33466   -352.27438    734.68922    382.41484    1001.6169   -352.27438            0    -7.869939            0            0            0            0            0            0 
10213000    653.79587    66233.262    473.82226   -340.62733    721.72319    381.09587    1012.6262   -340.62733            0   -7.9067454            0            0            0            0            0            0 
10214000    614.03237    64549.214    461.24116   -363.40987    702.55975    339.14988    917.19017   -363.40987            0   -8.1130274            0            0            0            0            0            0 
10215000    670.71509    66054.757    507.27813   -349.63586    772.68298    423.04712    1069.1744   -349.63586            0   -7.9281125            0            0            0            0            0            0 
10216000    706.20578    62659.379    449.35856   -352.30947    684.46023    332.15077    977.49769   -352.30947            0     -8.35772            0            0            0            0            0            0 
10217000    700.68408    65446.967    472.34972   -331.85896    719.48023    387.62127     1056.408   -331.85896            0   -8.0017389            0            0            0            0            0            0 
10218000    697.88921    68331.122    485.09095   -317.65401    738.88759    421.23359    1116.7076   -317.65401            0   -7.6639974            0            0            0            0            0            0 
10219000    729.21555    63266.899    478.82216   -356.68021    729.33901     372.6588    1045.4935   -356.68021            0    -8.277465            0            0            0            0            0            0 
10220000    764.25566    63447.147    501.51291   -349.94319    763.90142    413.95823    1121.1328   -349.94319            0   -8.2539495            0            0            0            0            0            0 
10221000    686.23149    67044.672    466.97627   -327.42048    711.29543    383.87494    1054.8568   -327.42048            0   -7.8110538            0            0            0            0            0            0 
10222000    621.56118    67574.547    472.57884   -332.31729    719.82923    387.51194    1000.0639   -332.31729            0   -7.7498047            0            0            0            0            0            0 
10223000    679.73704     64478.58    478.13325   -354.90852    728.28966    373.38114    1012.5746   -354.90852            0    -8.121915            0            0            0            0            0            0 
10224000    775.50481    62697.446    486.12973   -355.10226    740.46986     385.3676    1094.4721   -355.10226            0   -8.3526455            0            0            0            0            0            0 
10225000    618.45913    66951.126    481.41694   -340.14179    733.29137    393.14958    997.02142   -340.14179            0   -7.8219677            0            0            0            0            0            0 
10226000    690.87454    65531.186     460.8458   -340.13918    701.95752    361.81834    1022.0907   -340.13918            0   -7.9914553            0            0            0            0            0            0 
10227000    660.87992    64554.925    476.20822   -352.25459    725.35747    373.10288    995.29976   -352.25459            0   -8.1123097            0            0            0            0            0            0 
10228000    748.74514    63423.191    478.38674   -352.09939    728.67579     376.5764    1069.1373   -352.09939            0   -8.2570671            0            0            0            0            0            0 
10229000    667.33938     66297.62    503.50577   -348.94483    766.93693     417.9921    1063.2311   -348.94483            0   -7.8990701            0            0            0            0            0            0 
10230000    680.75832    65481.909    474.82552   -343.61801    723.25136    379.63335    1029.7483   -343.61801            0   -7.9974691            0            0            0            0            0            0 
10231000    557.59432    69852.362    470.88192    -342.1263    717.24449    375.11818    943.15349    -342.1263            0   -7.4970914            0            0            0            0            0            0 
10232000    798.53521    62268.624    467.10402   -355.30329    711.49001    356.18672    1081.3557   -355.30329            0   -8.4101673            0            0            0            0            0            0 
10233000    716.10134    67720.889     473.4865     -328.853    721.21177    392.35877    1099.6089     -328.853            0   -7.7330578            0            0            0            0            0            0 
10234000    805.22193    65611.724     482.6879   -331.53538    735.22728     403.6919    1174.1924   -331.53538            0   -7.9816458            0            0            0            0            0            0 
10235000    687.60384    62674.833    501.44594   -379.98792    763.79942     383.8115    1012.3145   -379.98792            0   -8.3556592            0            0            0            0            0            0 
10236000    593.20861     65321.78     477.7087   -363.08474    727.64299    364.55825    929.67911   -363.08474            0   -8.0170741            0            0            0            0            0            0 
10237000    649.53228    69053.573    489.27622   -326.44834    745.26257    418.81423    1072.9423   -326.44834            0   -7.5838153            0            0            0            0            0            0 
10238000    776.32817    60297.663    492.78246   -377.35514    750.60325    373.24812    1055.9352   -377.35514            0    -8.685072            0            0            0            0            0            0 
10239000    615.61084    64768.914    491.30637   -359.20878    748.35489    389.14611    970.64484   -359.20878            0   -8.0855075            0            0            0            0            0            0 
10240000    696.91082     64007.92    476.19216   -359.15331    725.33301     366.1797    1016.7389   -359.15331            0   -8.1816366            0            0            0            0            0            0 
10241000    685.25576    66427.258    477.81745   -333.68437    727.80864    394.12427    1057.9818   -333.68437            0   -7.8836544            0            0            0            0            0            0 
10242000    639.83211    67817.197    474.39262   -332.59641    722.59196    389.99556    1022.8178   -332.59641            0    -7.722076            0            0            0            0            0            0 
10243000    846.62042    62866.015     486.3376   -337.70809    740.78649     403.0784    1179.2908   -337.70809            0   -8.3302488            0            0            0            0            0            0 
10244000    621.18289    66384.783    465.78886    -343.9225    709.48676    365.56426    966.96494    -343.9225            0   -7.8886987            0            0            0            0            0            0 
10245000     747.4968    64164.199    467.54487   -355.23837    712.16151    356.92314    1056.4075   -355.23837            0   -8.1617094            0            0            0            0            0            0 
10246000    618.29845     69214.38    491.98075   -334.78046     749.3821    414.60164    1038.7249   -334.78046            0   -7.5661957            0            0            0            0            0            0 
10247000    679.54424    63787.709    460.55012   -361.71528    701.50716    339.79188    971.95714   -361.71528            0   -8.2098817            0            0            0            0            0            0 
10248000    595.71974    69800.591    444.77973   -325.98293    677.48579    351.50286     957.9277   -325.98293            0    -7.502652            0            0            0            0            0            0 
10249000    669.25366    64277.166    490.30779   -360.46506    746.83386     386.3688    1013.7382   -360.46506            0   -8.1473652            0            0            0            0            0            0 
10250000    661.05016    65871.579    497.37735   -357.98809    757.60217    399.61408    1034.6648   -357.98809            0   -7.9501593            0            0            0            0            0            0 
10251000     699.1063    64098.087    469.09444   -356.67137     714.5218    357.85043    1011.3784   -356.67137            0   -8.1701275            0            0            0            0            0            0 
10252000    766.23403    60331.272     470.2391   -380.84086    716.26535    335.42448    1009.6106   -380.84086            0   -8.6802337            0            0            0            0            0            0 
10253000    651.18169    66869.855    490.14696   -347.45837    746.58887     399.1305    1034.1813   -347.45837            0   -7.8314742            0            0            0            0            0            0 
10254000    650.78046    65416.453    469.40184   -345.95655    714.99004    369.03349    989.89879   -345.95655            0   -8.0054715            0            0            0            0            0            0 
10255000    771.15101     62601.81    484.90452    -353.3655    738.60362    385.23812     1089.286    -353.3655            0   -8.3654058            0            0            0            0            0            0 
10256000    744.46842    65421.203    490.14137   -333.57729    746.58036    413.00307    1123.3012   -333.57729            0   -8.0048902            0            0            0            0            0            0 
10257000    695.52188    65119.329    507.83171   -351.03692    773.52618    422.48926    1083.0254   -351.03692            0   -8.0419984            0            0            0            0            0            0 
10258000    657.35856    65828.909    471.33511   -350.42141    717.93479    367.51337    998.60856   -350.42141            0   -7.9553126            0            0            0            0            0            0 
10259000    725.77123    64470.399    462.77846   -352.51129    704.90135    352.39006    1034.7853   -352.51129            0   -8.1229456            0            0            0            0            0            0 
10260000    699.40708    65977.172    453.03411   -337.13707     690.0588    352.92174    1025.8978   -337.13707            0   -7.9374355            0            0            0            0            0            0 
10261000    925.68937    60720.873    493.78881   -351.37078    752.13612    400.76535    1220.5111   -351.37078            0   -8.6245391            0            0            0            0            0            0 
10262000    581.70087    68220.348    476.95212   -326.59701    726.49057    399.89356    978.64161   -326.59701            0    -7.676442            0            0            0            0            0            0 
10263000    715.11691    63773.748    482.67521   -357.15876    735.20795    378.04918    1043.1613   -357.15876            0    -8.211679            0            0            0            0            0            0 
10264000    634.39155    66253.217    495.33082   -347.74558    754.48491    406.73932    1019.7108   -347.74558            0    -7.904364            0            0            0            0            0            0 
10265000    621.75749    67256.481    463.78574   -339.63759    706.43562    366.79803     976.6593   -339.63759            0   -7.7864548            0            0            0            0            0            0 
10266000    754.88721     62084.83    485.89373   -368.15601    740.11039    371.95438    1055.4621   -368.15601            0   -8.4350645            0            0            0            0            0            0 
10267000    596.63156    66330.835    490.61901   -351.28591    747.30791    396.02199    973.18379   -351.28591            0   -7.8951146            0            0            0            0            0            0 
10268000    797.72347    63653.705    480.85372    -347.5166    732.43346    384.91687    1125.4627    -347.5166            0   -8.2271652            0            0            0            0            0            0 
10269000    590.45779    66950.588    502.39786   -355.31799    765.24938    409.93139    986.45772   -355.31799            0   -7.8220305            0            0            0            0            0            0 
10270000    705.89051    65558.232    435.06146    -337.7829    662.68298    324.90008    999.80169    -337.7829            0   -7.9881585            0            0            0            0            0            0 
10271000     668.5656    65777.209     464.0882   -347.85294    706.89633     359.0434    1000.3938   -347.85294            0   -7.9615653            0            0            0            0            0            0 
10272000    552.78506    69489.878    500.57594   -338.00834    762.47424     424.4659    984.67961   -338.00834            0   -7.5361989            0            0            0            0            0            0 
10273000    785.77062    65336.728    489.80863   -330.13204    746.07354     415.9415    1164.6781   -330.13204            0   -8.0152399            0            0            0            0            0            0 
10274000     636.5158     66809.41    494.37131   -350.55593    753.02338    402.46745    1022.6545   -350.55593            0   -7.8385596            0            0            0            0            0            0 
10275000     745.8966    64163.054    456.08884   -341.75112    694.71175    352.96063    1050.9351   -341.75112            0   -8.1618551            0            0            0            0            0            0 
10276000    665.12876     67861.97    497.16655    -334.1524    757.28108    423.12868    1081.4048    -334.1524            0   -7.7169812            0            0            0            0            0            0 
10277000    741.20241    62983.823    463.96073   -357.45807    706.70217     349.2441    1030.0789   -357.45807            0   -8.3146675            0            0            0            0            0            0 
10278000    659.26219    65405.653    479.46786   -352.87722    730.32253    377.44532    1006.2986   -352.87722            0   -8.0067933            0            0            0            0            0            0 
10279000    666.37291    64012.811    498.44939   -366.88534    759.23508    392.34974    1014.4496   -366.88534            0   -8.1810116            0            0            0            0            0            0 
10280000    657.49723    64672.234    500.72878   -355.67757    762.70704    407.02947    1027.1665   -355.67757            0   -8.0975948            0            0            0            0            0            0 
10281000    580.16513    63357.024    494.06619   -378.91155    752.55862    373.64707    909.71803   -378.91155            0   -8.2656904            0            0            0            0            0            0 
10282000    714.08202    65224.764    469.34414   -339.05383    714.90215    375.84832     1055.109   -339.05383            0   -8.0289987            0            0            0            0            0            0 
10283000    759.39245    64358.313     491.7405   -347.31144    749.01615    401.70472    1114.4704   -347.31144            0   -8.1370925            0            0            0            0            0            0 
10284000    826.16217     64632.03    509.52336   -335.39844     776.1029    440.70445    1219.4382   -335.39844            0   -8.1026318            0            0            0            0            0            0 
10285000    702.72773    66967.354    479.98085   -327.41124    731.10392    403.69268    1090.0118   -327.41124            0   -7.8200723            0            0            0            0            0            0 
10286000     679.0253    64944.828    493.45571   -347.94787    751.62874    403.68087    1046.8222   -347.94787            0   -8.0636067            0            0            0            0            0            0 
10287000    674.27402    65278.269    472.59666   -341.47983    719.85636    378.37653    1020.2966   -341.47983            0   -8.0224178            0            0            0            0            0            0 
10288000    811.60365    62346.095    466.76282   -354.06766     710.9703    356.90264    1094.8564   -354.06766            0   -8.3997169            0            0            0            0            0            0 
10289000     569.6345    66034.851     474.8002   -358.70937    723.21279    364.50341    913.09024   -358.70937            0   -7.9305024            0            0            0            0            0            0 
10290000    693.96505    63096.137     487.4096   -371.03438    742.41935    371.38497    1009.9664   -371.03438            0    -8.299867            0            0            0            0            0            0 
10291000    655.76296    65795.031    461.98733   -349.22618     703.6963    354.47012    983.70946   -349.22618            0   -7.9594088            0            0            0            0            0            0 
10292000    625.02829    67703.039    484.27312   -344.49668    737.64188     393.1452    1010.2852   -344.49668            0   -7.7350966            0            0            0            0            0            0 
10293000    762.97677    63579.175    482.82278    -352.4763    735.43272    382.95643    1090.4168    -352.4763            0   -8.2368094            0            0            0            0            0            0 
10294000    607.13484    64389.151    476.59028   -356.65681    725.93942    369.28261    939.41241   -356.65681            0   -8.1331954            0            0            0            0            0            0 
10295000    611.32177    68461.202    463.89679   -336.95576    706.60478    369.64902    980.01493   -336.95576            0   -7.6494355            0            0            0            0            0            0 
10296000    669.32715    65803.783    464.24306   -343.03505    707.13222    364.09716    1006.4375   -343.03505            0   -7.9583501            0            0            0            0            0            0 
10297000     693.8838     67860.51     494.9419   -329.92656     753.8925    423.96594     1110.686   -329.92656            0   -7.7171472            0            0            0            0            0            0 
10298000    636.23126    64926.313     452.1581   -354.37608    688.72447    334.34839    936.78539   -354.37608            0   -8.0659061            0            0            0            0            0            0 
10299000    675.93163    67150.844    479.66942   -336.69934    730.62955     393.9302    1055.8877   -336.69934            0   -7.7987039            0            0            0            0            0            0 
10300000    661.54152    64438.918    490.88114   -355.64733    747.70718    392.05985    1013.7604   -355.64733            0    -8.126914            0            0            0            0            0            0 
10301000     676.3807    65050.657    472.78648   -345.19641    720.14551     374.9491    1016.6295   -345.19641            0   -8.0504882            0            0            0            0            0            0 
10302000    659.94322    64242.077    486.14971   -356.93934    740.50028    383.56095    1001.8649   -356.93934            0   -8.1518153            0            0            0            0            0            0 
10303000    603.14468    64045.745    487.60422   -368.36112     742.7158    374.35468    937.71684   -368.36112            0   -8.1768046            0            0            0            0            0            0 
10304000     680.8219    66569.135    455.25789   -335.55185    693.44605     357.8942    1018.8651   -335.55185            0   -7.8668522            0            0            0            0            0            0 
10305000    564.11343    66714.258    459.07913   -355.38486    699.26655    343.88169    892.74094   -355.38486            0   -7.8497395            0            0            0            0            0            0 
10306000    724.40963    62523.827    477.97187   -362.21279    728.04385    365.83106     1026.381   -362.21279            0   -8.3758396            0            0            0            0            0            0 
10307000    651.38402    68417.158    467.56287   -325.15895    712.18893    387.02998    1036.9771   -325.15895            0   -7.6543599            0            0            0            0            0            0 
10308000    748.87183    62069.211     453.6503   -364.12776    690.99739    326.86963    1004.7602   -364.12776            0   -8.4371871            0            0            0            0            0            0 
10309000    807.62055    64964.958     482.4403   -334.18821    734.85014    400.66193    1165.8398   -334.18821            0    -8.061108            0            0            0            0            0            0 
10310000    700.54264    66377.929    475.54487    -333.0538    724.34707    391.29326    1069.4564    -333.0538            0   -7.8895132            0            0            0            0            0            0 
10311000    656.55692    66463.498    475.73952   -346.31989    724.64355    378.32365    1014.7256   -346.31989            0   -7.8793557            0            0            0            0            0            0 
10312000    720.26885    65515.788    477.82613   -346.31462    727.82186    381.50724    1069.7101   -346.31462            0   -7.9933335            0            0            0            0            0            0 
10313000    735.15854     62847.86    487.86135   -358.79503    743.10745    384.31242    1058.1378   -358.79503            0   -8.3326551            0            0            0            0            0            0 
10314000    683.37347    68357.613    476.87322   -324.73276     726.3704    401.63763    1082.9102   -324.73276            0   -7.6610274            0            0            0            0            0            0 
10315000    750.81272    64740.399    503.34417    -345.6914    766.69079    420.99938     1129.896    -345.6914            0   -8.0890688            0            0            0            0            0            0 
10316000    685.97789    65705.492    522.58207   -349.25852    795.99384    446.73532    1104.0717   -349.25852            0   -7.9702553            0            0            0            0            0            0 
10317000     619.0186    66669.325    500.14319   -355.08589    761.81507    406.72918    1008.6033   -355.08589            0   -7.8550299            0            0            0            0            0            0 
10318000    750.17328    60561.538    474.36082    -380.4108    722.54353    342.13273    1004.7067    -380.4108            0   -8.6472299            0            0            0            0            0            0 
10319000    579.74027    66585.444    472.03231   -349.66554    718.99676    369.33121    932.30563   -349.66554            0   -7.8649253            0            0            0            0            0            0 
10320000    795.53586     63637.83    490.04972   -350.41743    746.44077    396.02334    1134.3542   -350.41743            0   -8.2292175            0            0            0            0            0            0 
10321000    714.29379    65496.465    463.66491   -331.70226    706.25158    374.54932    1056.8419   -331.70226            0   -7.9956917            0            0            0            0            0            0 
10322000    748.01088    64809.655    482.61188   -342.69506    735.11149    392.41643    1099.4231   -342.69506            0   -8.0804248            0            0            0            0            0            0 
10323000    674.95806    69241.167    488.12385   -327.97103    743.50728    415.53625    1097.1166   -327.97103            0   -7.5632686            0            0            0            0            0            0 
10324000    722.98368    62377.626    474.27385   -364.99124    722.41105    357.41981     1015.128   -364.99124            0   -8.3954709            0            0            0            0            0            0 
10325000    632.07674    64851.503    459.82497   -355.70658     700.4026    344.69603    942.50956   -355.70658            0   -8.0752106            0            0            0            0            0            0 
10326000    633.43992    63948.382    462.98678    -358.7058    705.21866    346.51286    937.27259    -358.7058            0    -8.189254            0            0            0            0            0            0 
10327000    770.56444    61856.692    474.25961   -358.56886    722.38936     363.8205    1058.9593   -358.56886            0   -8.4661744            0            0            0            0            0            0 
10328000     638.1492     66920.21     475.2886   -342.39702    723.95671    381.55969    1004.3695   -342.39702            0   -7.8255813            0            0            0            0            0            0 
10329000    651.94478    63886.822    491.16978   -371.63985    748.14683    376.50698    983.93942   -371.63985            0   -8.1971451            0            0            0            0            0            0 
10330000    733.65562    62055.958    501.21423    -370.5846    763.44647    392.86188    1056.8367    -370.5846            0    -8.438989            0            0            0            0            0            0 
10331000    673.43887    64894.967    502.44141   -357.72318    765.31571    407.59253    1044.9529   -357.72318            0   -8.0698022            0            0            0            0            0            0 
10332000    783.57284    64567.071     536.6132   -344.93351    817.36597    472.43245    1210.2795   -344.93351            0   -8.1107837            0            0            0            0            0            0 
10333000    712.01388    67186.618    472.22666   -320.63565    719.29278    398.65712    1096.3224   -320.63565            0   -7.7945513            0            0            0            0            0            0 
10334000    741.68283    62698.095    490.44889   -362.16036    747.04877    384.88841    1063.0738   -362.16036            0   -8.3525591            0            0            0            0            0            0 
10335000    687.52416    65298.643    489.81144   -349.03323    746.07782    397.04459    1051.7833   -349.03323            0   -8.0199147            0            0            0            0            0            0 
10336000    681.23916    66524.056    475.78027   -339.13875    724.70562    385.56687     1046.495   -339.13875            0    -7.872183            0            0            0            0            0            0 
10337000    828.35362    64971.674    463.94557   -324.23768    706.67907    382.44139    1167.3439   -324.23768            0   -8.0602748            0            0            0            0            0            0 
10338000    846.84914    64087.236    476.22072   -334.13482    725.37651    391.24169    1182.7464   -334.13482            0   -8.1715108            0            0            0            0            0            0 
10339000    674.48603    64671.727    495.92074   -355.17969    755.38346    400.20377    1036.3593   -355.17969            0   -8.0976583            0            0            0            0            0            0 
10340000    720.40223    66092.441    461.73487   -332.11713    703.31176    371.19463    1065.5835   -332.11713            0   -7.9235922            0            0            0            0            0            0 
10341000    675.32349    66109.365    480.69138   -338.00454    732.18619    394.18164    1045.2862   -338.00454            0   -7.9215637            0            0            0            0            0            0 
10342000     687.0487    65093.586    452.68484    -339.4803     689.5268     350.0465    1002.2778    -339.4803            0   -8.0451789            0            0            0            0            0            0 
10343000    837.70502    64463.242     457.5751   -329.42433    696.97561    367.55128    1155.1031   -329.42433            0   -8.1238474            0            0            0            0            0            0 
10344000    647.72434    70178.008    493.75911   -327.49189    752.09088    424.59899    1087.5282   -327.49189            0   -7.4623028            0            0            0            0            0            0 
10345000    617.99309    63860.037    472.58486   -369.29475    719.83839    350.54364    926.10108   -369.29475            0   -8.2005831            0            0            0            0            0            0 
10346000    717.86573    64270.044    486.02542   -357.04384    740.31097    383.26713    1056.1318   -357.04384            0    -8.148268            0            0            0            0            0            0 
10347000    745.77019    66215.233    505.25845   -329.86766     769.6066    439.73894    1159.9152   -329.86766            0   -7.9088983            0            0            0            0            0            0 
10348000    624.41394     63732.01    480.37264   -363.69666    731.70069    368.00404    948.37556   -363.69666            0   -8.2170568            0            0            0            0            0            0 
10349000     743.0826    62466.076    476.41725   -357.47853    725.67587    368.19734    1045.1483   -357.47853            0   -8.3835832            0            0            0            0            0            0 
10350000    557.78386    67190.816    487.50825   -348.67382     742.5696    393.89579    940.47328   -348.67382            0   -7.7940644            0            0            0            0            0            0 
10351000    695.67737     63706.74     490.2211   -354.55229     746.7018    392.14951    1038.5016   -354.55229            0   -8.2203162            0            0            0            0            0            0 
10352000    641.75859    66341.922    451.58633   -343.42527    687.85356    344.42829    965.34826   -343.42527            0   -7.8937952            0            0            0            0            0            0 
10353000    636.06043    66573.456    480.30052   -348.71267    731.59084    382.87817    1000.4328   -348.71267            0   -7.8663416            0            0            0            0            0            0 
[...]
14939000    686.21119    64361.383    482.58469   -358.72847    735.07008    376.34161    1020.4501   -358.72847            0   -8.1367044            0            0            0            0            0            0 
14940000    673.82367    66015.614    497.70212   -350.20722    758.09686    407.88963    1056.6269   -350.20722            0   -7.9328134            0            0            0            0            0            0 
14941000    647.34854    67269.731    490.56541   -341.96876    747.22626     405.2575    1040.3453   -341.96876            0   -7.7849211            0            0            0            0            0            0 
14942000     724.1316    63662.557    481.04028   -347.57637    732.71763    385.14126    1057.4635   -347.57637            0   -8.2260212            0            0            0            0            0            0 
14943000    665.61705    64411.452    470.92334   -358.16463    717.30757    359.14294    984.40693   -358.16463            0   -8.1303794            0            0            0            0            0            0 
14944000    766.68979    65934.545    475.07761   -328.06216    723.63534    395.57318    1132.8127   -328.06216            0   -7.9425671            0            0            0            0            0            0 
14945000    677.35621    67424.203    488.35825   -337.75822    743.86433    406.10611    1072.1592   -337.75822            0   -7.7670854            0            0            0            0            0            0 
14946000    725.01308    59828.384    483.47731   -383.98751     736.4297    352.44219    985.04192   -383.98751            0   -8.7531956            0            0            0            0            0            0 
14947000    664.25689    66311.965    500.68298   -353.64645    762.63727    408.99082    1051.3883   -353.64645            0   -7.8973613            0            0            0            0            0            0 
14948000    752.66714    65735.821    455.80137   -329.92603    694.27388    364.34786     1085.922   -329.92603            0    -7.966578            0            0            0            0            0            0 
14949000    677.26042    63698.654    480.34662   -365.87633    731.66106    365.78473    994.94579   -365.87633            0   -8.2213597            0            0            0            0            0            0 
14950000    582.80798    68254.526     459.0846   -343.23564    699.27488    356.03924    936.17927   -343.23564            0   -7.6725981            0            0            0            0            0            0 
14951000    846.43927    59334.539    495.94806    -381.0357    755.42507    374.38937    1106.8415    -381.0357            0   -8.8260489            0            0            0            0            0            0 
14952000    752.00979    62813.052      443.831   -350.94811    676.04069    325.09258    1013.9816   -350.94811            0   -8.3372727            0            0            0            0            0            0 
14953000    725.58308    64556.545    487.36459    -349.2952    742.35079    393.05559    1076.1855    -349.2952            0   -8.1121061            0            0            0            0            0            0 
14954000    738.05126    66285.385    503.23097   -332.17837    766.51836    434.33999    1147.8174   -332.17837            0    -7.900528            0            0            0            0            0            0 
14955000    717.38798    63123.676    472.51808   -362.43002    719.73668    357.30665    1017.7298   -362.43002            0    -8.296246            0            0            0            0            0            0 
14956000    640.11946    67141.104    500.99797   -348.81526    763.11706    414.30181    1041.0966   -348.81526            0   -7.7998352            0            0            0            0            0            0 
14957000    683.51357    64579.711     457.1705   -345.13346    696.35933    351.22587    994.97866   -345.13346            0   -8.1091962            0            0            0            0            0            0 
14958000    650.40622    64205.648    460.63564   -359.46135    701.63742    342.17607    951.19923   -359.46135            0   -8.1564405            0            0            0            0            0            0 
14959000    675.20628    66414.555    479.78146   -335.40741    730.80021     395.3928    1049.3896   -335.40741            0   -7.8851623            0            0            0            0            0            0 
14960000    647.90689    65921.735     467.0454   -346.79328    711.40072    364.60744    987.50569   -346.79328            0   -7.9441104            0            0            0            0            0            0 
14961000    701.94369    64999.339    475.42337    -344.1889      724.162     379.9731    1045.3797    -344.1889            0   -8.0568441            0            0            0            0            0            0 
14962000    683.87943    67540.616    494.74347   -324.39804    753.59025    429.19222    1102.8207   -324.39804            0   -7.7536981            0            0            0            0            0            0 
14963000    839.38881    64119.184    505.82626   -333.32807     770.4715    437.14343    1222.0664   -333.32807            0   -8.1674393            0            0            0            0            0            0 
14964000     697.2853    65634.827    500.10551   -346.80738    761.75768     414.9503    1082.4034   -346.80738            0   -7.9788363            0            0            0            0            0            0 
14965000    790.44784    64864.861    480.17329   -331.32589    731.39704    400.07115    1147.8249   -331.32589            0   -8.0735476            0            0            0            0            0            0 
14966000    658.94619    67486.106    473.98378   -335.91872    721.96921    386.05049    1034.5956   -335.91872            0   -7.7599609            0            0            0            0            0            0 
14967000    663.15089    65355.258    475.81689   -355.00323     724.7614    369.75816    1001.8334   -355.00323            0   -8.0129673            0            0            0            0            0            0 
14968000    836.49142    63693.381    489.59562   -339.48042    745.74908    406.26866    1183.2877   -339.48042            0   -8.2220404            0            0            0            0            0            0 
14969000    634.97906    69776.418    485.28775    -323.7682    739.18736    415.41916    1061.5849    -323.7682            0   -7.5052512            0            0            0            0            0            0 
14970000    755.30319    65094.914    467.74911   -330.38536    712.47261    382.08725    1099.1287   -330.38536            0   -8.0450148            0            0            0            0            0            0 
14971000     544.3576    67341.453    458.98991    -358.8142    699.13065    340.31644    874.93332    -358.8142            0   -7.7766297            0            0            0            0            0            0 
14972000    791.41235    63347.984      486.169    -352.9294    740.52967    387.60027    1118.7587    -352.9294            0     -8.26687            0            0            0            0            0            0 
14973000    647.76751    66936.982    494.42408   -338.87794    753.10376    414.22582    1046.5811   -338.87794            0   -7.8236206            0            0            0            0            0            0 
14974000    633.89314    65222.846    443.10447   -355.31061    674.93404    319.62343    922.58785   -355.31061            0   -8.0292348            0            0            0            0            0            0 
14975000    633.93615     65925.64    488.30541   -352.30924    743.78384     391.4746    1000.9775   -352.30924            0     -7.94364            0            0            0            0            0            0 
14976000    700.78045    64881.331    492.14967    -346.8557    749.63939     402.7837    1065.8815    -346.8557            0   -8.0714982            0            0            0            0            0            0 
14977000    752.21688    61545.575    480.22639   -370.56299    731.47793    360.91493    1036.0891   -370.56299            0   -8.5089716            0            0            0            0            0            0 
14978000    624.83561    68481.429    483.00157   -326.92481    735.70506    408.78025    1032.8232   -326.92481            0   -7.6471761            0            0            0            0            0            0 
14979000    692.18431    63931.364    469.37248   -355.41637    714.94531    359.52894    1004.9032   -355.41637            0   -8.1914339            0            0            0            0            0            0 
14980000    674.79996      68896.1    481.12759   -328.26488    732.85063    404.58575    1082.6105   -328.26488            0   -7.6011493            0            0            0            0            0            0 
14981000    742.96332    63893.544    466.31537   -349.75605    710.28875     360.5327    1052.8421   -349.75605            0   -8.1962826            0            0            0            0            0            0 
14982000    589.16858    66624.186     469.6207   -344.12213     715.3234    371.20128    943.66423   -344.12213            0   -7.8603518            0            0            0            0            0            0 
14983000      673.528    63570.828    486.69331   -359.63381     741.3283    381.69449    1006.1326   -359.63381            0   -8.2378909            0            0            0            0            0            0 
14984000      703.592    65919.373    488.22916   -348.64081    743.66769    395.02688    1071.4366   -348.64081            0   -7.9443951            0            0            0            0            0            0 
14985000     625.4597    67465.038    468.96949   -332.73957    714.33148    381.59191    996.98695   -332.73957            0   -7.7623842            0            0            0            0            0            0 
14986000    610.06954    63631.562    452.45987   -366.04965    689.18412    323.13447    889.27966   -366.04965            0   -8.2300281            0            0            0            0            0            0 
14987000     677.7278    66502.065    467.53223    -333.5864    712.14226    378.55585    1035.8599    -333.5864            0   -7.8747862            0            0            0            0            0            0 
14988000     826.9309     64527.11    499.72134   -341.79569    761.17252    419.37683    1197.5698   -341.79569            0   -8.1158066            0            0            0            0            0            0 
14989000    513.35291    66901.436     478.9036    -364.8768    729.46306    364.58626    865.45896    -364.8768            0   -7.8277774            0            0            0            0            0            0 
14990000      700.235    65586.264    467.47079   -338.93582    712.04868    373.11286    1042.8935   -338.93582            0   -7.9847442            0            0            0            0            0            0 
14991000    722.96994     66038.61    472.64039   -338.52318    719.92298    381.39979     1077.696   -338.52318            0    -7.930051            0            0            0            0            0            0 
14992000    818.09555    63838.299    493.53021   -347.70347    751.74222    404.03875    1165.6989   -347.70347            0   -8.2033757            0            0            0            0            0            0 
14993000    729.22972    63894.664    506.17254   -349.42199    770.99895    421.57696     1101.101   -349.42199            0    -8.196139            0            0            0            0            0            0 
14994000    675.64543    65812.063    483.03611    -339.9699    735.75767    395.78776    1044.2732    -339.9699            0   -7.9573489            0            0            0            0            0            0 
14995000    753.55164    59880.224     461.0404   -381.86864    702.25393    320.38529    978.45565   -381.86864            0   -8.7456177            0            0            0            0            0            0 
14996000    595.97907    69292.497    499.84173   -333.55377    761.35589    427.80212    1030.0747   -333.55377            0   -7.5576659            0            0            0            0            0            0 
14997000    712.82912    65653.044     491.6192   -342.60362    748.83139    406.22777     1088.749   -342.60362            0   -7.9766225            0            0            0            0            0            0 
14998000    541.37304    63581.519    504.75528   -381.88466    768.84019    386.95552    888.95517   -381.88466            0   -8.2365057            0            0            0            0            0            0 
14999000    630.24065     66146.93    473.84568   -350.58955    721.75886    371.16931    979.15309   -350.58955            0    -7.917065            0            0            0            0            0            0 
15000000    726.12548    62867.975    481.27818    -363.2437    733.08001    369.83631    1035.5953    -363.2437            0   -8.3299891            0            0            0            0            0            0 
Loop time of 1341.31 on 8 procs for 5000000 steps with 512 atoms

Pair  time (%) = 719.142 (53.615)
Bond  time (%) = 0.448555 (0.0334417)
Neigh time (%) = 34.3605 (2.56172)
Comm  time (%) = 422.459 (31.4961)
Outpt time (%) = 0.266757 (0.0198879)
Other time (%) = 164.629 (12.2738)

Nlocal:    64 ave 73 max 56 min
Histogram: 2 2 0 0 0 1 0 1 0 2
Nghost:    1184 ave 1240 max 1121 min
Histogram: 1 1 0 1 1 1 0 0 2 1
Neighs:    5264.62 ave 6386 max 4329 min
Histogram: 2 1 1 0 0 1 1 0 0 2

Total # of neighbors = 42117
Ave neighs/atom = 82.2598
Ave special neighs/atom = 0
Neighbor list builds = 101204
Dangerous builds = 0

Averages
Group Pressure(MPa) Volume(m3) Temperature(K) PE(J) KE(J) ET(J) ET^2(J) H(J) H^2(J^2) V^2(m6) V*H(m3*J) Hconf(J) Uext*Hconf(J^2) V*Hconf(m3*J) Uext(J)
Block1 70.105972925477772151 6.5313672429733653152e-26 480.03023924608322659 -2.4103280301108600397e-18 5.0800096068025736346e-18 2.6696815766917082023e-18 7.1700026564400046798e-36 7.241680438490805031e-18 5.2741161677175305016e-35 4.2696538659499307465e-51 4.7294079663148679101e-43 2.1616708316882414113e-18 -5.1848498168020715227e-36 1.411350860319982375e-43 -2.4103280301108600397e-18
Block2 70.131117007152056431 6.5249963295343579912e-26 480.38436875040486029 -2.4129149574605821614e-18 5.0837572483820535376e-18 2.6708422909214717614e-18 7.1750685865858800143e-36 7.2412091444657799428e-18 5.2746936750772078302e-35 4.2610540520155406468e-51 4.7249131312160749903e-43 2.1574518960837237089e-18 -5.1759261182722210562e-36 1.4077410136963217276e-43 -2.4129149574605821614e-18
Block3 70.147333366304820856 6.5279834362100103719e-26 479.55939619856809486 -2.4121389693396835893e-18 5.075026822367092679e-18 2.6628878530274102453e-18 7.1360129612377760028e-36 7.2361295342130621303e-18 5.2688680611666791759e-35 4.2649833814231067217e-51 4.7236493244873297678e-43 2.161102711845964829e-18 -5.1830649891284271442e-36 1.4105957108457349263e-43 -2.4121389693396835893e-18
Block4 70.099854108531630459 6.5252851921708075951e-26 480.72327908864383517 -2.4138711486320555476e-18 5.0873438302957268942e-18 2.6734726816636786651e-18 7.1926346072408873225e-36 7.2421260480844654549e-18 5.2733482598588326005e-35 4.2613222610268189404e-51 4.7258399260737222395e-43 2.1547822177887370199e-18 -5.1753152413269618012e-36 1.406063628241285744e-43 -2.4138711486320555476e-18
Block5 70.094445873050872819 6.5256724371760658144e-26 479.62547744039579811 -2.4137115552613001953e-18 5.0757261394431283932e-18 2.6620145841818281979e-18 7.1269596844925033421e-36 7.2289507784168987124e-18 5.2547593652846106795e-35 4.2621928077493388667e-51 4.7164084125578889622e-43 2.1532246389737726303e-18 -5.1736370261105896843e-36 1.4043746042568498144e-43 -2.4137115552613001953e-18
Ave_blocks 70.115744656103430543 6.5270609276129216472e-26 480.06455214481923122 -2.4125929321608966148e-18 5.0803727294581153359e-18 2.6677797972972194914e-18 7.1601356991994097377e-36 7.2380191887342022543e-18 5.2691571058209721576e-35 4.2638412736329474218e-51 4.7240437521299769333e-43 2.157646459276088074e-18 -5.1785586383280553108e-36 1.4080251634720348776e-43 -2.4125929321608966148e-18
Stdev_blocks 0.020178157349082209704 2.3974603802742816102e-29 0.44392574803583767507 1.290326998930089008e-21 4.6979270894903153599e-21 4.5293126515744574026e-21 2.4734920389488473175e-38 5.0250118599807532865e-21 7.4858552691943837743e-38 3.2224868741886693747e-54 4.2710850658655009427e-46 3.3447117680940933259e-21 4.5068431722906819753e-39 2.6428362592095868533e-46 1.290326998930089008e-21






Properties
Group rho(kg/m3) Cp(J/K) Cp_conf(J/K) Cp_id(J/K) Cp2(J/K) kT(1/Pa) aP(1/K) aP2(1/K) Cv(J/K) uJT(K/Pa) sos(m/s) Cv2(J/K) uJT2(K/Pa) sos2(m/s) CvNVT(J/K)
Block1 208.8266308230292907 9.4054388762190764229e-20 -1.9453078898000917891e-22 3.8515758811915839578e-20 3.832122802293582739e-20 8.7279629766781474611e-09 -0.00019224881164735550592 -0.00024820532678217969817 9.3921622682155528592e-20 -7.5850964004211272944e-07 741.23744524265748623 3.809992772414367482e-20 -1.9074425088022073065e-06 742.86217318955596056 1.3454053251643576803e-20
Block2 209.03052616971496036 9.7870676533117592439e-20 2.3008051060071764076e-21 3.8533883170349272891e-20 4.0834688276356452308e-20 8.0790732327365008378e-09 1.2901939506721523876e-05 2.1373365547002587537e-06 9.7870030704036650551e-20 -6.6256363492197368305e-07 769.51272095875594914 4.0834670552695997738e-20 -1.5962646244895391644e-06 769.51034902106675872 1.3078652488959613031e-20
Block3 208.93487695641070445 1.0302099964320000809e-19 1.9487394073300190364e-21 3.8491663649202990362e-20 4.0440403056533010903e-20 8.1592907054015726068e-09 -4.0549822744432987599e-05 -8.1321811249690419956e-05 1.0301469084026224261e-19 -6.4597770763629375565e-07 765.91684970939184041 4.0415029395862245531e-20 -1.6771756439225347756e-06 766.13378441676491093 1.4185424682658931663e-20
Block4 209.02127276436797843 8.9353769513064250505e-20 1.1109917766900605489e-21 3.8551230156193759318e-20 3.9662221932883822877e-20 7.8218830630686087351e-09 7.0193335798495059175e-05 3.2557889058871892021e-06 8.933401005197002755e-20 -7.0563321561649224653e-07 782.16273584217424286 3.9662179422423282484e-20 -1.6426392501714090046e-06 782.0766674598477266 1.415981519856657871e-20
Block5 209.00886907039620155 9.1265579507126241345e-20 -1.283676329085449388e-21 3.8495045143560230266e-20 3.7211368814474779374e-20 8.6843399994132437942e-09 -0.00046708360981103221 -0.00036151106912534353979 9.0479294576353587496e-20 -8.7520262830852953341e-07 745.46651102036014436 3.6740354728058691239e-20 -2.0577469997135203643e-06 746.99102457846470315 1.2795139474240561666e-20
Ave_blocks 208.96443515678384983 9.5113082791739768914e-20 7.7646583439235946638e-22 3.8517516186244420891e-20 3.929398202063677857e-20 8.2945099954596140252e-09 -0.00012335739377952080953 -0.00013712901633932523225 9.4923929770955602545e-20 -7.2957736530508043197e-07 760.8592525546679326 3.9150432364636783177e-20 -1.7762538054198421231e-06 761.51479973313996652 1.3534617019213852976e-20
Stdev_blocks 0.076728912302852933514 4.883303721607692589e-21 1.3413995174596529445e-21 2.2719593894950604369e-23 1.3496062905495351837e-21 3.5437900368601660077e-10 0.00019275856592727933642 0.00014484661341303145814 5.0228782459177021299e-21 8.2579487613802022438e-08 15.337874811803310138 1.5237967837402581695e-21 1.7692616032723318327e-07 14.607633306267185702 5.6136344577815517716e-22






