LAMMPS (28 Oct 2012)
Scanning data file ...
Reading data file ...
  orthogonal box = (0 0 0) to (100 100 100)
  2 by 2 by 2 MPI processor grid
  512 atoms
Finding 1-2 1-3 1-4 neighbors ...
  0 = max # of 1-2 neighbors
  0 = max # of 1-3 neighbors
  0 = max # of 1-4 neighbors
  1 = max # of special neighbors
WARNING: Resetting reneighboring criteria during minimization (min.cpp:173)
Setting up minimization ...
Memory usage per processor = 4.05499 Mbytes
Step Temp E_pair E_mol TotEng Press 
       0       500.15    1409.7233            0    2171.5488    447.34124 
     701       500.15   -217.27527            0    544.55018    34.596342 
Loop time of 0.0523635 on 8 procs for 701 steps with 512 atoms

Minimization stats:
  Stopping criterion = energy tolerance
  Energy initial, next-to-last, final = 
         1409.72334813     -217.256630745     -217.275265106
  Force two-norm initial, final = 5034.49 0.337455
  Force max component initial, final = 2457.89 0.147661
  Final line search alpha, max atom move = 0.254892 0.0376377
  Iterations, force evaluations = 701 710

Pair  time (%) = 0.00893393 (17.0614)
Bond  time (%) = 6.02305e-05 (0.115024)
Neigh time (%) = 0.003144 (6.00417)
Comm  time (%) = 0.0202921 (38.7523)
Outpt time (%) = 0 (0)
Other time (%) = 0.0199333 (38.0671)

Nlocal:    64 ave 74 max 52 min
Histogram: 1 0 0 1 1 2 0 2 0 1
Nghost:    235.125 ave 266 max 224 min
Histogram: 4 0 2 0 0 1 0 0 0 1
Neighs:    316.25 ave 371 max 226 min
Histogram: 1 0 0 1 1 1 0 1 0 3

Total # of neighbors = 2530
Ave neighs/atom = 4.94141
Ave special neighs/atom = 0
Neighbor list builds = 60
Dangerous builds = 0
Setting up run ...
Memory usage per processor = 3.36354 Mbytes
Step Temp E_pair E_mol TotEng Press Volume 
     701       500.15   -217.27527            0    544.55018    34.596342      1000000 
 5000701    490.41503   -324.40836            0    422.58885    640.63967    69632.405 
Loop time of 1289.43 on 8 procs for 5000000 steps with 512 atoms

Pair  time (%) = 692.674 (53.7193)
Bond  time (%) = 0.441385 (0.034231)
Neigh time (%) = 34.4563 (2.67221)
Comm  time (%) = 407.179 (31.5782)
Outpt time (%) = 4.30942e-05 (3.34211e-06)
Other time (%) = 154.681 (11.9961)

Nlocal:    64 ave 69 max 54 min
Histogram: 1 0 0 0 0 1 2 1 1 2
Nghost:    1133.75 ave 1160 max 1105 min
Histogram: 1 0 1 2 0 0 2 0 0 2
Neighs:    4756.62 ave 5304 max 4030 min
Histogram: 1 0 0 1 1 1 2 0 1 1

Total # of neighbors = 38053
Ave neighs/atom = 74.3223
Ave special neighs/atom = 0
Neighbor list builds = 103376
Dangerous builds = 11
Setting up run ...
Memory usage per processor = 3.96695 Mbytes
Step Press Volume Temp PotEng KinEng TotEng Enthalpy E_vdwl E_coul E_tail E_long E_bond E_angle E_dihed E_impro E_mol 
10000000    640.63967    69632.405    490.41503   -324.40836    746.99721    422.58885    1073.1695   -324.40836            0   -7.5207735            0            0            0            0            0            0 
10001000    806.03978     66579.81    495.06996   -317.14386    754.08756     436.9437    1219.6069   -317.14386            0   -7.8655909            0            0            0            0            0            0 
10002000    647.93236    65439.249    518.91228    -358.6133    790.40404    431.79073    1050.1543    -358.6133            0   -8.0026827            0            0            0            0            0            0 
10003000    544.03355    70778.582    488.96052   -331.58935     744.7817    413.19235    974.76175   -331.58935            0   -7.3989833            0            0            0            0            0            0 
10004000    688.28824    67079.888    485.21727   -331.32319    739.08001    407.75682    1081.1033   -331.32319            0   -7.8069531            0            0            0            0            0            0 
10005000    857.07469    63054.586    497.22611   -336.62335     757.3718    420.74845    1208.9027   -336.62335            0   -8.3053364            0            0            0            0            0            0 
10006000    523.36488    71221.724    483.29222   -328.62928    736.14777    407.51849    951.13539   -328.62928            0   -7.3529468            0            0            0            0            0            0 
10007000    567.66991    67440.568    491.80273    -350.9345    749.11093    398.17642    956.50902    -350.9345            0   -7.7652007            0            0            0            0            0            0 
10008000    566.09181    67279.209    477.25145   -351.46322    726.94651    375.48328    930.93158   -351.46322            0   -7.7838243            0            0            0            0            0            0 
10009000    783.92407    65200.388    490.00939    -329.7576    746.37934    416.62174    1162.0401    -329.7576            0   -8.0320004            0            0            0            0            0            0 
10010000    702.38715    69706.362    511.54648   -317.48706    779.18449    461.69743    1175.7412   -317.48706            0   -7.5127942            0            0            0            0            0            0 
10011000    633.63909     70299.77    474.23575   -313.80853    722.35301    408.54449     1058.183   -313.80853            0   -7.4493778            0            0            0            0            0            0 
10012000    748.12143     63134.58    533.01194   -362.50417    811.88055    449.37638    1138.2115   -362.50417            0   -8.2948131            0            0            0            0            0            0 
10013000    570.81461    69252.692    474.53242   -334.43193    722.80491    388.37298    964.88402   -334.43193            0   -7.5620099            0            0            0            0            0            0 
10014000    665.02171    69072.429    473.11918   -324.49451    720.65226    396.15775    1066.0677   -324.49451            0   -7.5817451            0            0            0            0            0            0 
10015000     736.5843     66576.39    487.41552   -333.46992    742.42836    408.95844    1124.1438   -333.46992            0   -7.8659949            0            0            0            0            0            0 
10016000    706.74667    66218.699    536.84395   -347.00789    817.71746    470.70957    1153.2373   -347.00789            0   -7.9084844            0            0            0            0            0            0 
10017000    676.62769    67497.189    502.96824   -338.80974    766.11817    427.30843    1093.3653   -338.80974            0   -7.7586867            0            0            0            0            0            0 
10018000    686.96603    66193.621    453.54976   -336.02659    690.84425    354.81766    1017.9914   -336.02659            0   -7.9114806            0            0            0            0            0            0 
10019000    683.18422    69474.959    512.86609   -323.06689    781.19452    458.12762    1150.3442   -323.06689            0   -7.5378173            0            0            0            0            0            0 
10020000    674.38846    69541.548    493.15212   -318.81459    751.16632    432.35174    1116.3112   -318.81459            0   -7.5305994            0            0            0            0            0            0 
10021000     733.8172    65933.812    495.42763   -344.01702    754.63237    410.61535    1116.2371   -344.01702            0   -7.9426553            0            0            0            0            0            0 
10022000    651.10038    69537.217    500.69987   -328.04533    762.66301    434.61768    1094.9174   -328.04533            0   -7.5310685            0            0            0            0            0            0 
10023000    814.04363    64618.924    504.57632   -339.74943    768.56758    428.81816    1195.9735   -339.74943            0   -8.1042753            0            0            0            0            0            0 
10024000    707.96637    66967.542    507.95184    -348.5987    773.70917    425.11047    1116.5479    -348.5987            0   -7.8200503            0            0            0            0            0            0 
10025000    712.70684    70086.963    498.45024   -315.20478    759.23639    444.03161    1172.5224   -315.20478            0   -7.4719966            0            0            0            0            0            0 
10026000    738.04614    66268.214    479.90859    -333.5505    730.99385    397.44335    1110.7309    -333.5505            0   -7.9025752            0            0            0            0            0            0 
10027000    728.82892    67327.172     538.8178   -335.78035    820.72401    484.94366    1200.5791   -335.78035            0   -7.7782793            0            0            0            0            0            0 
10028000    733.67789    66040.635    492.79387   -339.76199    750.62064    410.85865    1117.4894   -339.76199            0   -7.9298078            0            0            0            0            0            0 
10029000    688.15868    65603.025    483.34948    -353.7108    736.23499    382.52419     1040.922    -353.7108            0   -7.9827042            0            0            0            0            0            0 
10030000    718.86916    68038.518    488.33908   -330.65766    743.83513    413.17747    1126.4912   -330.65766            0   -7.6969569            0            0            0            0            0            0 
10031000    736.39656    68094.803    486.53557   -324.47863    741.08803    416.60939    1147.9196   -324.47863            0   -7.6905949            0            0            0            0            0            0 
10032000      693.964    67399.033    502.67484   -337.19589    765.67127    428.47537    1110.6043   -337.19589            0   -7.7699861            0            0            0            0            0            0 
10033000     709.1796    65962.763    466.73488    -334.1263    710.92775    376.80144    1059.0317    -334.1263            0   -7.9391694            0            0            0            0            0            0 
10034000    663.67754    71110.609    524.38576   -304.84712    798.74121    493.89409    1182.1777   -304.84712            0   -7.3644363            0            0            0            0            0            0 
10035000     697.6135    69032.402    524.14493   -323.88838    798.37439    474.48601    1176.8201   -323.88838            0   -7.5861412            0            0            0            0            0            0 
10036000    702.53954     69376.73    479.73567   -317.49447    730.73046    413.23599    1124.0574   -317.49447            0   -7.5484899            0            0            0            0            0            0 
10037000    901.34382    64809.181    495.76333   -323.00757    755.14369    432.13612    1284.0642   -323.00757            0   -8.0804839            0            0            0            0            0            0 
10038000     683.3169    70176.792    502.73613   -313.90309    765.76462    451.86153    1151.2067   -313.90309            0   -7.4624321            0            0            0            0            0            0 
10039000     638.8465     68075.99     483.1387   -332.13424    735.91394     403.7797    1038.0383   -332.13424            0   -7.6927202            0            0            0            0            0            0 
10040000    758.88098    68314.573    493.48988   -315.63777    751.68079    436.04302    1192.1146   -315.63777            0    -7.665854            0            0            0            0            0            0 
10041000    666.68199    69127.969    505.00717   -326.95663    769.22385    442.26722    1114.3897   -326.95663            0   -7.5756536            0            0            0            0            0            0 
10042000    734.00793    66461.108    498.36995   -334.85104    759.11409    424.26305    1135.7128   -334.85104            0   -7.8796391            0            0            0            0            0            0 
10043000     653.8935    70110.252    496.18382   -315.45583    755.78419    440.32835    1108.9254   -315.45583            0   -7.4695145            0            0            0            0            0            0 
10044000    688.29994    69584.389    485.30668   -320.05915     739.2162    419.15704    1117.6555   -320.05915            0   -7.5259632            0            0            0            0            0            0 
10045000    711.39658    63415.676    510.88052   -358.21887    778.17011    419.95124    1077.8882   -358.21887            0   -8.2580457            0            0            0            0            0            0 
10046000    587.52589    69293.551    478.30807   -329.70794    728.55596    398.84802    992.58721   -329.70794            0   -7.5575509            0            0            0            0            0            0 
10047000    721.05756    70561.231     518.9141    -319.2201    790.40681    471.18671    1213.2005    -319.2201            0   -7.4217745            0            0            0            0            0            0 
10048000    654.64348     68084.78    485.34113   -326.13149    739.26867    413.13717    1063.1632   -326.13149            0   -7.6917271            0            0            0            0            0            0 
10049000    537.65774    68276.594    473.79802   -341.71862    721.68628    379.96766    915.33718   -341.71862            0   -7.6701181            0            0            0            0            0            0 
10050000    759.87902    67009.055    496.90634   -332.19614    756.88472    424.68858    1167.2867   -332.19614            0   -7.8152056            0            0            0            0            0            0 
10051000    853.33582      65470.8     521.5534   -329.72973    794.42698    464.69725    1279.4832   -329.72973            0   -7.9988261            0            0            0            0            0            0 
10052000    751.96738    69322.292    515.67106   -310.56324    785.46703    474.90378    1235.1387   -310.56324            0   -7.5544176            0            0            0            0            0            0 
10053000    717.70822    63949.497    467.59048   -358.47041    712.23098    353.76057    1023.1224   -358.47041            0   -8.1891113            0            0            0            0            0            0 
10054000    683.82409    68883.363    475.79415   -320.53164    724.72677    404.19513    1091.1602   -320.53164            0   -7.6025548            0            0            0            0            0            0 
10055000    782.58553    68435.236    495.70617   -320.86026    755.05663    434.19637    1215.2619   -320.86026            0   -7.6523379            0            0            0            0            0            0 
10056000    649.38844    69505.302    489.64298   -327.79408    745.82121    418.02714    1076.2885   -327.79408            0   -7.5345266            0            0            0            0            0            0 
10057000    676.00228    66331.367     495.2002   -348.64596    754.28594    405.63998    1059.5876   -348.64596            0   -7.8950514            0            0            0            0            0            0 
10058000    694.24865    67315.488    520.27191   -335.88003    792.47502      456.595    1138.1579   -335.88003            0   -7.7796293            0            0            0            0            0            0 
10059000    696.03683    69748.713      528.615   -327.59624    805.18317    477.58693    1185.6049   -327.59624            0   -7.5082324            0            0            0            0            0            0 
10060000     714.0863    65397.078     519.0238   -346.16911    790.57391     444.4048    1125.4641   -346.16911            0   -8.0078432            0            0            0            0            0            0 
10061000    647.66907    67138.555    506.01444   -349.30499    770.75812    421.45313    1055.6163   -349.30499            0   -7.8001313            0            0            0            0            0            0 
10062000    593.19092    71099.941    489.44695    -322.6123    745.52263    422.91033    1038.0017    -322.6123            0   -7.3655412            0            0            0            0            0            0 
10063000    632.14564    67101.804     488.3528   -344.96416    743.85603    398.89187    1017.5165   -344.96416            0   -7.8044034            0            0            0            0            0            0 
10064000    590.64362    68315.867    508.27298   -345.19826    774.19832    429.00007    1017.4683   -345.19826            0   -7.6657089            0            0            0            0            0            0 
10065000    704.29263    65051.799    506.84737   -351.63777    772.02683    420.38907    1088.5612   -351.63777            0   -8.0503468            0            0            0            0            0            0 
10066000    791.15662    69217.131    522.93516   -301.60497    796.53167     494.9267    1293.5683   -301.60497            0    -7.565895            0            0            0            0            0            0 
10067000    675.35034    68536.679    504.60119   -322.52915    768.60547    446.07632    1121.1141   -322.52915            0   -7.6410114            0            0            0            0            0            0 
10068000    664.33962    67568.664    492.97622   -340.39607    750.89839    410.50232    1065.1556   -340.39607            0   -7.7504795            0            0            0            0            0            0 
10069000    660.29429    68190.681    490.98888   -326.68984    747.87128    421.18144    1077.8383   -326.68984            0   -7.6797817            0            0            0            0            0            0 
10070000    668.60737    66607.684    515.36614   -341.96844    785.00258    443.03414    1092.5225   -341.96844            0   -7.8622993            0            0            0            0            0            0 
10071000    872.36233     66455.65    526.49552   -316.43238    801.95478     485.5224    1331.0051   -316.43238            0   -7.8802862            0            0            0            0            0            0 
10072000    724.94793    67410.557    523.25869   -335.39148    797.02447    461.63299    1174.3393   -335.39148            0   -7.7686577            0            0            0            0            0            0 
10073000    681.77842    67272.677     509.8374   -336.24181    776.58124    440.33943    1109.2343   -336.24181            0   -7.7845802            0            0            0            0            0            0 
10074000    701.69278    64545.566    533.98755   -366.28087     813.3666    447.08573    1107.6108   -366.28087            0    -8.113486            0            0            0            0            0            0 
10075000     679.8022    66838.611    478.23037   -333.36562    728.43759    395.07197    1057.7245   -333.36562            0   -7.8351351            0            0            0            0            0            0 
10076000    661.86558    69164.998    491.24718    -318.9344    748.26472    429.33032    1096.9545    -318.9344            0   -7.5715977            0            0            0            0            0            0 
10077000    601.77733    67106.757    478.14232   -339.57828    728.30348     388.7252    977.67458   -339.57828            0   -7.8038273            0            0            0            0            0            0 
10078000    626.64832     68828.82    486.12571   -328.02764    740.46373    412.43609    1041.4643   -328.02764            0   -7.6085794            0            0            0            0            0            0 
10079000    653.31422    69840.083    529.33246    -333.8136    806.27599    472.46239     1137.893    -333.8136            0   -7.4984096            0            0            0            0            0            0 
10080000    761.53869    66251.316    493.21526   -331.66289    751.26249    419.59961     1155.404   -331.66289            0   -7.9045908            0            0            0            0            0            0 
10081000    599.95835    73675.861    511.43631   -310.82262    779.01669    468.19407    1112.8414   -310.82262            0   -7.1080207            0            0            0            0            0            0 
10082000    697.21523    67289.251    496.05343   -335.71095    755.58558    419.87463    1104.0831   -335.71095            0   -7.7826627            0            0            0            0            0            0 
10083000    734.48903    67293.784    479.69106   -321.65782    730.66251    409.00469    1129.8402   -321.65782            0   -7.7821384            0            0            0            0            0            0 
10084000    687.67995     69665.08    526.65225   -322.57604    802.19351    479.61748     1178.296   -322.57604            0    -7.517246            0            0            0            0            0            0 
10085000    600.73762    64006.362    468.37278   -359.79817    713.42257     353.6244    914.39324   -359.79817            0   -8.1818358            0            0            0            0            0            0 
10086000    608.84997    67249.697    464.20426   -339.21683    707.07311    367.85628    964.99676   -339.21683            0   -7.7872402            0            0            0            0            0            0 
10087000     773.5172    68526.098     505.2927   -314.11158    769.65878     455.5472     1228.587   -314.11158            0   -7.6421912            0            0            0            0            0            0 
10088000    785.62103    65931.947    509.35847   -330.19866    775.85174    445.65308    1201.0668   -330.19866            0   -7.9428801            0            0            0            0            0            0 
10089000    647.73497    69695.041    504.17687   -322.18841    767.95915    445.77074    1104.1484   -322.18841            0   -7.5140145            0            0            0            0            0            0 
10090000    859.99737    66297.433    521.85129   -322.60101    794.88072     472.2797     1303.794   -322.60101            0   -7.8990924            0            0            0            0            0            0 
10091000     717.0916    67539.199    521.88879   -338.29703    794.93784    456.64081    1162.9688   -338.29703            0   -7.7538607            0            0            0            0            0            0 
10092000    607.30757    68627.661    465.63198   -327.30505    709.24781    381.94276    989.77507   -327.30505            0   -7.6308814            0            0            0            0            0            0 
10093000    701.57358    64720.585    485.57961   -350.90522    739.63191     388.7267    1050.9303   -350.90522            0   -8.0915453            0            0            0            0            0            0 
10094000    592.80632    69339.387    488.41651   -330.68414    743.95307    413.26893    1012.7407   -330.68414            0   -7.5525552            0            0            0            0            0            0 
10095000    696.09125    66458.676    478.74998   -333.57045    729.22907    395.65862    1070.3323   -333.57045            0   -7.8799274            0            0            0            0            0            0 
10096000    737.16162    67582.803    516.10777   -329.02535    786.13223    457.10688    1183.6724   -329.02535            0    -7.748858            0            0            0            0            0            0 
10097000    806.94443    69546.181    530.96299   -307.38038     808.7596    501.37922    1319.8305   -307.38038            0   -7.5300978            0            0            0            0            0            0 
10098000    788.93038     65353.88    528.57113   -341.64924    805.11634     463.4671    1215.4119   -341.64924            0   -8.0131363            0            0            0            0            0            0 
10099000    570.92906    70122.233    485.30685   -327.19063    739.21645    412.02582    995.89261   -327.19063            0   -7.4682383            0            0            0            0            0            0 
10100000     727.6251    66405.206    494.22018   -331.34494    752.79318    421.44824    1126.1181   -331.34494            0   -7.8862724            0            0            0            0            0            0 
10101000    726.83168    66043.977    486.48399   -336.38654    741.00947    404.62293    1104.6953   -336.38654            0   -7.9294066            0            0            0            0            0            0 
10102000    649.48526    70977.503    498.25927   -317.96946    758.94549    440.97603    1113.2804   -317.96946            0    -7.378247            0            0            0            0            0            0 
10103000    680.46041     66449.69    514.38668   -340.31022    783.51067    443.20045     1102.635   -340.31022            0   -7.8809931            0            0            0            0            0            0 
10104000     721.3526    66710.907    537.94325   -341.53671     819.3919    477.85519    1179.6665   -341.53671            0   -7.8501338            0            0            0            0            0            0 
10105000    577.08695    69880.667     482.1254   -329.88176    734.37048    404.48872    992.61988   -329.88176            0   -7.4940547            0            0            0            0            0            0 
10106000      649.799      67267.4    486.71352   -342.06695    741.35908    399.29213    1036.7619   -342.06695            0   -7.7851908            0            0            0            0            0            0 
10107000    687.00982     67225.18    496.68297   -337.17732     756.5445    419.36718    1092.9187   -337.17732            0   -7.7900802            0            0            0            0            0            0 
10108000    675.76535     70192.22    522.38518   -311.07096    795.69395    484.62298    1176.3915   -311.07096            0   -7.4607919            0            0            0            0            0            0 
10109000    714.21324    63477.565    482.78293   -364.09795    735.37203    371.27409    1032.4607   -364.09795            0   -8.2499942            0            0            0            0            0            0 
10110000    755.26061    67039.289    512.88999   -330.19373    781.23093     451.0372    1189.4549   -330.19373            0    -7.811681            0            0            0            0            0            0 
10111000    626.99312    69997.966    479.56996   -324.03848    730.47805    406.43957    1046.5046   -324.03848            0   -7.4814966            0            0            0            0            0            0 
10112000    739.01249    65186.186    488.48976   -345.69905    744.06464    398.36559    1100.9253   -345.69905            0   -8.0337503            0            0            0            0            0            0 
10113000    756.53459    67536.857    560.59296   -326.00651    853.89179    527.88528    1273.0384   -326.00651            0   -7.7541297            0            0            0            0            0            0 
10114000    650.12334     69136.05    522.70533   -334.98753    796.18159    461.19406    1116.6994   -334.98753            0    -7.574768            0            0            0            0            0            0 
10115000      637.496    64679.002    481.48917   -363.96823    733.40138    369.43315     970.7684   -363.96823            0   -8.0967474            0            0            0            0            0            0 
10116000    595.88188    70231.512    473.01376   -321.82867    720.49169    398.66303    1008.9978   -321.82867            0   -7.4566178            0            0            0            0            0            0 
10117000    619.69836    66762.862    490.31741   -347.12524    746.84851    399.72327    1003.1036   -347.12524            0   -7.8440248            0            0            0            0            0            0 
10118000    629.23856    66694.773    465.90103   -338.49205    709.65762    371.16557     983.2101   -338.49205            0   -7.8520328            0            0            0            0            0            0 
10119000    605.51887    66164.971    496.72668   -356.89724    756.61107    399.71384     984.0082   -356.89724            0   -7.9149063            0            0            0            0            0            0 
10120000    715.83106    69004.033    513.23763   -333.26415    781.76044    448.49629    1168.8751   -333.26415            0   -7.5892599            0            0            0            0            0            0 
10121000    635.27064    68486.787    505.50036   -340.07472    769.97508    429.90036    1064.4147   -340.07472            0   -7.6465778            0            0            0            0            0            0 
10122000    741.84895    65905.135    466.95605   -334.75598    711.26463    376.50865    1089.5433   -334.75598            0   -7.9461114            0            0            0            0            0            0 
10123000    725.37164     70276.63    516.54781    -308.4844     786.8025     478.3181    1221.7606    -308.4844            0   -7.4518307            0            0            0            0            0            0 
10124000    770.59074    68872.456    505.87404   -309.54363    770.54427    461.00064    1235.0083   -309.54363            0   -7.6037588            0            0            0            0            0            0 
10125000    571.55813    67148.483    472.29399   -344.48076    719.39535    374.91459    934.63675   -344.48076            0   -7.7989781            0            0            0            0            0            0 
10126000    661.36848    69820.547    509.77349   -328.11167    776.48389    448.37222     1121.818   -328.11167            0   -7.5005076            0            0            0            0            0            0 
10127000    706.47793    68718.049    504.53054   -327.80858    768.49785    440.68927    1148.7089   -327.80858            0   -7.6208442            0            0            0            0            0            0 
10128000    772.80817    66439.506    527.51922   -343.59156    803.51408    459.92252    1208.7366   -343.59156            0   -7.8822011            0            0            0            0            0            0 
10129000    700.52875    66447.602    515.58123    -345.2153    785.33021    440.11491    1118.9764    -345.2153            0   -7.8812407            0            0            0            0            0            0 
10130000    682.68344    72158.495    478.43562   -294.67133    728.75023     434.0789     1152.506   -294.67133            0   -7.2574898            0            0            0            0            0            0 
10131000    751.78356    67610.306    490.14882   -317.00118    746.59171    429.59054    1170.8694   -317.00118            0   -7.7457059            0            0            0            0            0            0 
10132000    688.90506    68809.237    509.58262   -329.66554    776.19316    446.52761    1137.8522   -329.66554            0   -7.6107448            0            0            0            0            0            0 
10133000    737.84042    68697.877     506.0341   -313.68003    770.78807    457.10804    1196.3416   -313.68003            0   -7.6230819            0            0            0            0            0            0 
10134000    694.88269    67560.854    505.55958   -331.36727    770.06529    438.69802    1123.3699   -331.36727            0   -7.7513754            0            0            0            0            0            0 
10135000    650.01252    70232.242    479.54952   -316.15962    730.44692     414.2873    1080.0725   -316.15962            0   -7.4565403            0            0            0            0            0            0 
10136000    532.82946     70611.73      499.049   -335.14913    760.14841    424.99928    973.70688   -335.14913            0   -7.4164667            0            0            0            0            0            0 
10137000    687.56093     65595.41    480.56796    -345.0179     731.9982     386.9803    1044.7298    -345.0179            0   -7.9836309            0            0            0            0            0            0 
10138000    578.55597    72637.335    526.65941   -323.03433    802.20441    479.17009    1092.0582   -323.03433            0    -7.209647            0            0            0            0            0            0 
10139000    652.61153    67598.401    498.05963   -338.77068    758.64141    419.87074      1063.25   -338.77068            0     -7.74707            0            0            0            0            0            0 
10140000    737.72624    67374.623    499.79907   -334.98285    761.29091    426.30806    1151.1903   -334.98285            0   -7.7728011            0            0            0            0            0            0 
10141000    584.95923    69999.547    513.08205   -331.45186    781.52347    450.07162    1047.2399   -331.45186            0   -7.4813276            0            0            0            0            0            0 
10142000    666.08118    63393.889       504.98   -367.88672    769.18247    401.29575     1017.111   -367.88672            0   -8.2608837            0            0            0            0            0            0 
10143000    615.97139    68619.764    466.04416   -325.04395    709.87563    384.83168    1001.2644   -325.04395            0   -7.6317597            0            0            0            0            0            0 
10144000    645.61561    68732.748    513.51687    -327.5534    782.18579    454.63239    1101.7953    -327.5534            0   -7.6192145            0            0            0            0            0            0 
10145000    733.55792    65097.596    510.09145   -338.14806     776.9682    438.82014    1135.2466   -338.14806            0   -8.0446833            0            0            0            0            0            0 
10146000    698.34316    67462.714    487.34346   -326.79197     742.3186    415.52663    1102.6086   -326.79197            0   -7.7626516            0            0            0            0            0            0 
10147000    593.96738    72631.252    500.95196   -316.52302    763.04699    446.52397    1075.6853   -316.52302            0   -7.2102508            0            0            0            0            0            0 
10148000    671.38464    65698.826    485.91595   -348.34926    740.14422    391.79496    1035.0822   -348.34926            0   -7.9710639            0            0            0            0            0            0 
10149000    613.37913    66130.893    490.83338    -357.8372    747.63442    389.79723    981.37149    -357.8372            0   -7.9189849            0            0            0            0            0            0 
10150000    713.38483    69307.926    499.50426   -313.29107    760.84186     447.5508    1168.6295   -313.29107            0   -7.5559835            0            0            0            0            0            0 
10151000    804.11247    65264.613    517.01274   -338.42615    787.51068    449.08452    1214.4528   -338.42615            0   -8.0240964            0            0            0            0            0            0 
10152000    540.18725    73857.399    499.00119   -318.99783    760.07559    441.07776     1022.932   -318.99783            0   -7.0905495            0            0            0            0            0            0 
10153000    726.98585    66980.259    507.33638    -331.1376     772.7717    441.63411    1151.7818    -331.1376            0   -7.8185655            0            0            0            0            0            0 
10154000    739.74605    66782.867    493.13724   -327.00323    751.14366    424.14043    1144.6232   -327.00323            0   -7.8416751            0            0            0            0            0            0 
10155000    545.67813    70404.322    474.47798   -332.13343    722.72198    390.58854    950.87711   -332.13343            0   -7.4383153            0            0            0            0            0            0 
10156000     604.8758     71136.23    486.17962   -312.49813    740.54585    428.04772    1055.5755   -312.49813            0   -7.3617838            0            0            0            0            0            0 
10157000    792.83401     63367.35    502.44937   -354.47674    765.32783    410.85109    1143.5469   -354.47674            0   -8.2643435            0            0            0            0            0            0 
10158000    671.49471     70292.65    499.40117   -313.82405    760.68483    446.86078     1135.241   -313.82405            0   -7.4501323            0            0            0            0            0            0 
10159000    572.94415    68235.324    529.57355   -353.64713    806.64322    452.99609     1023.157   -353.64713            0   -7.6747572            0            0            0            0            0            0 
10160000    575.77104    68423.494    492.45418    -349.8219    750.10321    400.28132    974.83545    -349.8219            0    -7.653651            0            0            0            0            0            0 
10161000    649.99107    67548.106    496.59079     -333.654    756.40408    422.75008    1063.0692     -333.654            0   -7.7528384            0            0            0            0            0            0 
10162000    689.45472     65501.56    507.28932   -344.74756    772.70001    427.95246      1086.57   -344.74756            0   -7.9950698            0            0            0            0            0            0 
10163000    723.96763    66100.668    499.23236   -336.70917    760.42771    423.71854    1121.6309   -336.70917            0   -7.9226059            0            0            0            0            0            0 
10164000    794.91562     64507.31    543.84064   -345.44573    828.37476    482.92903    1230.7641   -345.44573            0   -8.1182977            0            0            0            0            0            0 
10165000    572.48424    72351.535    488.04868   -316.83377    743.39278    426.55901    1030.6289   -316.83377            0   -7.2381263            0            0            0            0            0            0 
10166000    672.01561    67097.743    515.73993   -343.60473    785.57193    441.96719    1099.5692   -343.60473            0   -7.8048758            0            0            0            0            0            0 
10167000    649.40488    68752.516    491.55445   -328.30456    748.73275     420.4282    1071.5767   -328.30456            0   -7.6170237            0            0            0            0            0            0 
10168000    602.60684    68149.093    496.82383   -340.19267    756.75904    416.56637     1015.488   -340.19267            0   -7.6844683            0            0            0            0            0            0 
10169000    736.92902     65930.24    518.32196     -332.859    789.50487    456.64587    1165.2215     -332.859            0   -7.9430856            0            0            0            0            0            0 
10170000    656.13143    68800.321    523.01468   -326.99608    796.65278    469.65671    1128.0072   -326.99608            0   -7.6117312            0            0            0            0            0            0 
10171000    674.29511    68388.996    523.20183   -328.56285    796.93785      468.375    1140.9057   -328.56285            0   -7.6575118            0            0            0            0            0            0 
10172000    613.89987    70380.665    486.55612   -320.89419    741.11933    420.22514    1050.3503   -320.89419            0   -7.4408155            0            0            0            0            0            0 
10173000    727.57179    64830.239    474.39263   -343.03117    722.59198    379.56081    1067.4672   -343.03117            0   -8.0778593            0            0            0            0            0            0 
10174000    621.80209    66326.317    516.41687   -360.58279    786.60305    426.02026    1027.4902   -360.58279            0   -7.8956524            0            0            0            0            0            0 
10175000    628.16038    69802.785    474.22928   -325.38245    722.34316    396.96072    1036.4293   -325.38245            0   -7.5024163            0            0            0            0            0            0 
10176000    767.28065    66716.493    482.65341   -323.18002    735.17475    411.99473    1158.5524   -323.18002            0   -7.8494765            0            0            0            0            0            0 
10177000    814.50494    65904.403    521.38936   -338.24013    794.17711    455.93698    1238.7969   -338.24013            0   -7.9461997            0            0            0            0            0            0 
10178000    674.42067    69963.407    527.03376    -323.4608    802.77463    479.31383    1167.4553    -323.4608            0   -7.4851922            0            0            0            0            0            0 
10179000    860.62862    63475.616    490.50543    -335.8025    747.13489    411.33239    1208.0393    -335.8025            0   -8.2502476            0            0            0            0            0            0 
10180000    559.70954    68463.017    495.07994   -347.05088    754.10276    407.05189    965.90108   -347.05088            0   -7.6492327            0            0            0            0            0            0 
10181000    576.40522    67267.465     486.3542   -346.17067    740.81177     394.6411    960.11017   -346.17067            0   -7.7851833            0            0            0            0            0            0 
10182000    577.44482    69834.696    501.40907   -325.66844    763.74325    438.07481    1026.1835   -325.66844            0    -7.498988            0            0            0            0            0            0 
10183000    735.48789    68916.956    514.70452   -318.78977     783.9948    465.20503    1204.4315   -318.78977            0    -7.598849            0            0            0            0            0            0 
10184000    714.97061     66500.96    489.98806   -331.75947    746.34684    414.58737    1108.0004   -331.75947            0   -7.8749171            0            0            0            0            0            0 
10185000    640.26095    69570.596    502.88549   -325.05478    765.99212    440.93735    1090.5562   -325.05478            0   -7.5274552            0            0            0            0            0            0 
10186000    682.32418    66406.334    530.19726   -353.02789    807.59325    454.56536    1115.3747   -353.02789            0   -7.8861385            0            0            0            0            0            0 
10187000    669.95287    66620.428    488.66187   -347.00861     744.3268     397.3182    1048.2381   -347.00861            0   -7.8607953            0            0            0            0            0            0 
10188000    634.61991    70374.114    522.61647   -330.34231    796.04623    465.70392    1117.0361   -330.34231            0   -7.4415082            0            0            0            0            0            0 
10189000    751.74901    63793.518    478.74572   -349.55877    729.22257     379.6638    1079.0633   -349.55877            0   -8.2091342            0            0            0            0            0            0 
10190000    699.44931    67653.383    493.39863    -326.6421     751.5418     424.8997     1115.015    -326.6421            0    -7.740774            0            0            0            0            0            0 
10191000    574.13526    69476.323    498.57318   -336.22658    759.42365    423.19707    1004.9344   -336.22658            0   -7.5376692            0            0            0            0            0            0 
10192000    662.51303    65524.165     467.4367   -340.92281    711.99674    371.07393    1004.1732   -340.92281            0   -7.9923117            0            0            0            0            0            0 
10193000    775.11544    67354.674    496.69278   -331.31753    756.55944     425.2419    1186.6369   -331.31753            0   -7.7751033            0            0            0            0            0            0 
10194000    679.61176    68489.769    519.35665   -337.28331     791.0809     453.7976    1132.6299   -337.28331            0   -7.6462449            0            0            0            0            0            0 
10195000    686.96525    66958.326    481.56594   -328.57115    733.51831    404.94716    1075.7814   -328.57115            0   -7.8211266            0            0            0            0            0            0 
10196000    529.29566    69216.389    494.13453   -345.20508    752.66272    407.45763    941.75516   -345.20508            0   -7.5659761            0            0            0            0            0            0 
10197000    680.40842    67968.573    491.90562   -332.29357    749.26765    416.97408    1091.4302   -332.29357            0   -7.7048778            0            0            0            0            0            0 
10198000      670.198    70781.466    477.56748   -307.97649    727.42789     419.4514    1111.2801   -307.97649            0   -7.3986818            0            0            0            0            0            0 
10199000    899.32766    63433.047    512.54619   -334.14097    780.70725    446.56628    1278.5396   -334.14097            0   -8.2557842            0            0            0            0            0            0 
10200000    741.75547    68040.307    526.34795   -331.80407       801.73    469.92593    1205.9685   -331.80407            0   -7.6967546            0            0            0            0            0            0 
10201000    524.42547     70322.55    497.35694   -336.56625    757.57107    421.00482    958.84628   -336.56625            0   -7.4469647            0            0            0            0            0            0 
10202000    751.56455    65137.754    508.87998   -339.07495     775.1229    436.04795    1150.0097   -339.07495            0   -8.0397237            0            0            0            0            0            0 
10203000    695.33938    69860.209     507.7301   -318.21923     773.3714    455.15217    1163.5914   -318.21923            0   -7.4962494            0            0            0            0            0            0 
10204000    667.56507    67400.994    482.04993   -339.09557    734.25554    395.15997    1051.3593   -339.09557            0   -7.7697599            0            0            0            0            0            0 
10205000    759.01026    67938.536    533.86648   -329.79533    813.18218    483.38685    1235.4247   -329.79533            0   -7.7082842            0            0            0            0            0            0 
10206000    686.86517    71806.821     533.9178   -320.89071    813.26036    492.36965    1211.6747   -320.89071            0   -7.2930334            0            0            0            0            0            0 
10207000     752.6117    66269.534    491.98963   -338.42553    749.39562    410.97009    1138.3491   -338.42553            0   -7.9024178            0            0            0            0            0            0 
10208000    618.86587    67009.513    478.92148   -338.83476    729.49029    390.65553    995.45149   -338.83476            0   -7.8151523            0            0            0            0            0            0 
10209000    693.02357    68345.789    474.40121   -319.98462    722.60505    402.62043    1093.3939   -319.98462            0   -7.6623528            0            0            0            0            0            0 
10210000    690.39882    67628.076    490.68171    -331.1017    747.40341    416.30171    1097.2325    -331.1017            0   -7.7436706            0            0            0            0            0            0 
10211000    685.81437    68469.621    505.64381   -320.99578    770.19358     449.1978    1134.0241   -320.99578            0   -7.6484948            0            0            0            0            0            0 
10212000    645.27311    70159.122    506.63115   -326.24354     771.6975    445.45396    1105.6967   -326.24354            0   -7.4643115            0            0            0            0            0            0 
10213000    638.73754      68859.2    483.94209   -325.96935    737.13765    411.16831    1052.6146   -325.96935            0   -7.6052226            0            0            0            0            0            0 
10214000    662.42402    64781.803    512.86597   -358.61617    781.19433    422.57817    1048.4206   -358.61617            0   -8.0838989            0            0            0            0            0            0 
10215000    647.95246    69478.261    477.68077   -321.19663    727.60045    406.40382    1062.9541   -321.19663            0    -7.537459            0            0            0            0            0            0 
10216000    617.76268    67778.941    503.70858   -331.64597    767.24586    435.59989    1046.2498   -331.64597            0   -7.7264345            0            0            0            0            0            0 
10217000     700.8598    64993.252     503.1771   -354.32489    766.43631    412.11142    1076.4283   -354.32489            0   -8.0575988            0            0            0            0            0            0 
10218000    577.53713    69268.993    476.93839   -332.52007    726.46966    393.94959    977.38755   -332.52007            0   -7.5602304            0            0            0            0            0            0 
10219000    613.64965    67185.919    488.25691   -340.67843    743.70996    403.03152    1004.3086   -340.67843            0   -7.7946324            0            0            0            0            0            0 
10220000    691.31995     69372.81    522.59673   -320.37125    796.01617    475.64492    1175.0749   -320.37125            0   -7.5489164            0            0            0            0            0            0 
10221000    635.67371    67342.395    491.70006   -348.87158    748.95455    400.08297    1024.3907   -348.87158            0    -7.776521            0            0            0            0            0            0 
10222000    748.00231    65495.531    476.26276   -332.44002    725.44055    393.00052    1107.4812   -332.44002            0   -7.9958058            0            0            0            0            0            0 
10223000    605.85586    69422.306    521.58643   -337.02561    794.47729    457.45167    1070.8523   -337.02561            0   -7.5435343            0            0            0            0            0            0 
10224000    684.45929    66942.706    506.75236    -331.9504    771.88212    439.93172     1108.163    -331.9504            0   -7.8229515            0            0            0            0            0            0 
10225000    749.59463        66894    513.78618   -324.38876    782.59599    458.20723     1189.497   -324.38876            0   -7.8286475            0            0            0            0            0            0 
10226000    629.51295    68496.436    478.79421   -335.66204    729.29644     393.6344    1022.4865   -335.66204            0   -7.6455007            0            0            0            0            0            0 
10227000    691.12792    69329.306    494.27412   -324.88264    752.87534     427.9927    1126.7899   -324.88264            0   -7.5536533            0            0            0            0            0            0 
10228000    670.13606    65446.611    492.06288   -346.60843    749.50719    402.89876    1042.5247   -346.60843            0   -8.0017825            0            0            0            0            0            0 
10229000    697.81175    64485.044    498.25297   -359.68708    758.93591    399.24883    1055.5046   -359.68708            0   -8.1211009            0            0            0            0            0            0 
10230000    659.41583    70231.183    522.59903   -322.93867    796.01967    473.08101    1148.4875   -322.93867            0   -7.4566527            0            0            0            0            0            0 
10231000    691.72503    66170.152     486.0098   -343.98252    740.28718    396.30467    1063.8358   -343.98252            0   -7.9142865            0            0            0            0            0            0 
10232000    794.58528     66338.33    492.40037   -328.24487    750.02125    421.77638     1190.519   -328.24487            0   -7.8942226            0            0            0            0            0            0 
10233000    803.30756    66616.263    533.37802      -327.22    812.43817    485.21817    1265.6555      -327.22            0   -7.8612867            0            0            0            0            0            0 
10234000    704.84302    68646.127    510.47921   -331.37116    777.55884    446.18768    1151.8295   -331.37116            0   -7.6288287            0            0            0            0            0            0 
10235000    714.89368    70654.299    482.61686   -305.91524    735.11907    429.20383    1165.8449   -305.91524            0   -7.4119983            0            0            0            0            0            0 
10236000    781.96939    65787.551    502.72949   -332.87329    765.75451    432.88123     1183.137   -332.87329            0   -7.9603138            0            0            0            0            0            0 
10237000    693.45924    68246.353    504.13439    -321.3224    767.89445    446.57204    1136.7741    -321.3224            0   -7.6735169            0            0            0            0            0            0 
10238000    635.18601    66928.948    478.41742    -350.6401    728.72251    378.08241    998.08116    -350.6401            0   -7.8245597            0            0            0            0            0            0 
10239000    653.33849    68778.081    491.91565   -331.66003    749.28294    417.62291    1072.9592   -331.66003            0   -7.6141924            0            0            0            0            0            0 
10240000    681.65683    68157.774    501.43848   -330.63441    763.78805    433.15364    1110.7282   -330.63441            0   -7.6834895            0            0            0            0            0            0 
10241000    762.90574    65010.679    500.33033   -335.26348    762.10012    426.83664    1150.1583   -335.26348            0   -8.0554388            0            0            0            0            0            0 
10242000    745.67524    68857.404    516.50655   -317.34328    786.73965    469.39637    1218.2143   -317.34328            0    -7.605421            0            0            0            0            0            0 
10243000    809.09085    66529.541    523.61713   -320.07585    797.57044    477.49459    1262.5272   -320.07585            0    -7.871534            0            0            0            0            0            0 
10244000    707.31108    68236.535    488.06557   -327.01539    743.41851    416.40312    1120.2907   -327.01539            0    -7.674621            0            0            0            0            0            0 
10245000    685.73137     71076.38    477.77483     -298.186    727.74372    429.55772    1140.3705     -298.186            0   -7.3679828            0            0            0            0            0            0 
10246000     775.0123    65956.782    479.96891   -328.02796    731.08573    403.05777    1148.5514   -328.02796            0   -7.9398893            0            0            0            0            0            0 
10247000    637.20237    68514.361    477.23957   -321.63547    726.92842    405.29296     1041.993   -321.63547            0   -7.6435004            0            0            0            0            0            0 
10248000    648.36586    70039.969    488.07007   -319.77686    743.42537    423.64852     1085.929   -319.77686            0     -7.47701            0            0            0            0            0            0 
10249000    725.57065    67190.812    521.37476   -326.76927    794.15487     467.3856    1178.3789   -326.76927            0   -7.7940649            0            0            0            0            0            0 
10250000    731.59311    67271.988     533.4578     -335.684    812.55968    476.87569    1194.6365     -335.684            0   -7.7846599            0            0            0            0            0            0 
10251000    716.54581    67751.298    484.12355   -328.30593    737.41405    409.10813     1117.115   -328.30593            0   -7.7295868            0            0            0            0            0            0 
10252000    641.01226    68810.729    473.03347   -323.21546    720.52171    397.30625    1040.5838   -323.21546            0   -7.6105799            0            0            0            0            0            0 
10253000    752.16039     64535.85    494.79625   -343.19901    753.67065    410.47164    1118.3969   -343.19901            0   -8.1147075            0            0            0            0            0            0 
10254000    664.10849    69235.121    513.05152   -332.96606    781.47696     448.5109    1119.0767   -332.96606            0   -7.5639291            0            0            0            0            0            0 
10255000    730.65688    66528.479    498.59817    -336.4048    759.46171    423.05691    1131.9765    -336.4048            0   -7.8716597            0            0            0            0            0            0 
10256000    570.74504    70188.074    482.80864    -328.8445    735.41119     406.5667    990.79334    -328.8445            0   -7.4612326            0            0            0            0            0            0 
10257000    723.01638    69579.614    487.85619     -311.532    743.09959     431.5676    1165.2465     -311.532            0   -7.5264796            0            0            0            0            0            0 
10258000     727.6511    68473.529    516.90681   -321.85993    787.34932    465.48938    1192.1335   -321.85993            0   -7.6480583            0            0            0            0            0            0 
10259000    800.33223    65773.981    531.28764   -336.31026    809.25411    472.94385    1240.6594   -336.31026            0   -7.9619561            0            0            0            0            0            0 
10260000    768.18337     69341.54       510.54   -303.83125    777.65143    473.82019     1250.665   -303.83125            0   -7.5523207            0            0            0            0            0            0 
10261000    742.83612    66325.146    528.83111   -335.40052    805.51234    470.11183    1188.6455   -335.40052            0   -7.8957918            0            0            0            0            0            0 
10262000    677.63054    66346.726    495.68243   -338.68324    755.02046    416.33722    1072.0118   -338.68324            0   -7.8932236            0            0            0            0            0            0 
10263000    704.43507    68919.517     507.2393   -318.46269    772.62383    454.16113    1162.2032   -318.46269            0   -7.5985667            0            0            0            0            0            0 
10264000    698.13746    69564.221    522.07141   -317.69868    795.21601    477.51732    1185.7937   -317.69868            0   -7.5281451            0            0            0            0            0            0 
10265000    662.16621    67071.087    480.99433   -332.84479    732.64764    399.80285    1047.5093   -332.84479            0   -7.8079777            0            0            0            0            0            0 
10266000    599.97095    66501.747    448.59569   -344.44043    683.29823     338.8578    920.74549   -344.44043            0   -7.8748239            0            0            0            0            0            0 
10267000    719.31153    66552.813    477.73513   -329.85985    727.68325     397.8234    1095.9904   -329.85985            0   -7.8687816            0            0            0            0            0            0 
10268000    822.37767    66058.838    510.67577   -330.21649    777.85823    447.64174    1239.9207   -330.21649            0   -7.9276227            0            0            0            0            0            0 
10269000     740.2876    71473.243    518.76741   -298.35753    790.18338    491.82585    1263.4749   -298.35753            0   -7.3270713            0            0            0            0            0            0 
10270000    724.35189    65538.274    464.58645   -343.40446    707.65527    364.25081    1056.5925   -343.40446            0    -7.990591            0            0            0            0            0            0 
10271000    626.88415    68203.422    494.20578   -339.72864    752.77124     413.0426    1036.5898   -339.72864            0   -7.6783471            0            0            0            0            0            0 
10272000    561.53626     68775.55    480.67486   -335.86858    732.16103    396.29244    959.52503   -335.86858            0   -7.6144726            0            0            0            0            0            0 
10273000    712.44984    66018.521    517.33943   -345.36126    788.00828    442.64702    1128.6026   -345.36126            0   -7.9324641            0            0            0            0            0            0 
10274000    801.21279    68472.348    504.63668   -309.85394    768.65953    458.80559    1258.8959   -309.85394            0   -7.6481902            0            0            0            0            0            0 
10275000     666.6641     66850.21    510.15239   -343.36399    777.06102    433.69703    1083.6557   -343.36399            0   -7.8337756            0            0            0            0            0            0 
10276000    712.63064    70611.194    511.35625   -313.25637    778.89474    465.63837    1199.4996   -313.25637            0    -7.416523            0            0            0            0            0            0 
10277000    596.31395     69815.55    498.58462   -334.59614    759.44107    424.84493    1032.0047   -334.59614            0   -7.5010445            0            0            0            0            0            0 
10278000    627.21709    67694.291    491.06664   -335.37139    747.98972    412.61833    1031.8395   -335.37139            0   -7.7360962            0            0            0            0            0            0 
10279000      643.823    66864.978    494.35543   -344.77878    752.99919    408.22041     1036.049   -344.77878            0   -7.8320454            0            0            0            0            0            0 
10280000    720.41178    69056.023    512.36025   -321.50138    780.42402    458.92264    1184.4575   -321.50138            0   -7.5835463            0            0            0            0            0            0 
10281000    713.45206    68656.236    521.82971   -324.71303    794.84785    470.13482    1184.5007   -324.71303            0   -7.6277055            0            0            0            0            0            0 
10282000     892.9199    65968.891    500.70022   -307.99638    762.66355    454.66716    1313.7352   -307.99638            0   -7.9384318            0            0            0            0            0            0 
10283000    712.60281     66285.38    507.02639   -336.35761    772.29952    435.94191    1124.8181   -336.35761            0   -7.9005287            0            0            0            0            0            0 
10284000    595.20246    68095.745     500.9042   -341.47656    762.97424    421.49768    1012.5972   -341.47656            0   -7.6904885            0            0            0            0            0            0 
10285000      692.344    68650.932    484.25065   -317.67355    737.60765     419.9341    1113.1113   -317.67355            0   -7.6282947            0            0            0            0            0            0 
10286000    682.29583    67275.478    479.11256   -323.29372    729.78134    406.48762     1075.918   -323.29372            0    -7.784256            0            0            0            0            0            0 
10287000    769.29443     64224.31    523.77912   -352.80771    797.81717    445.00946    1165.5658   -352.80771            0   -8.1540705            0            0            0            0            0            0 
10288000    686.68805    69546.633    520.99684   -321.45909    793.57923    472.12015    1168.6047   -321.45909            0   -7.5300489            0            0            0            0            0            0 
10289000    688.55051    67290.087    465.15595    -328.8539    708.52272    379.66883    1055.3826    -328.8539            0    -7.782566            0            0            0            0            0            0 
10290000     689.0254    67329.967    497.11477   -329.37424     757.2022    427.82797    1104.4085   -329.37424            0   -7.7779564            0            0            0            0            0            0 
10291000    758.34395    65492.896    501.67889    -341.6728    764.15425    422.48145    1146.8112    -341.6728            0   -7.9961274            0            0            0            0            0            0 
10292000    657.84361    69753.042    489.91745    -319.3641    746.23929    426.87519    1096.0841    -319.3641            0   -7.5077664            0            0            0            0            0            0 
10293000    620.10742    68888.825    473.97203   -333.69223    721.95132    388.25908    1011.2642   -333.69223            0   -7.6019521            0            0            0            0            0            0 
10294000     662.7212    70763.391    521.88631   -319.73645    794.93406    475.19761    1159.1335   -319.73645            0   -7.4005717            0            0            0            0            0            0 
10295000    668.18572    65771.241    505.42291   -348.30401    769.85711    421.55309    1062.4809   -348.30401            0   -7.9622877            0            0            0            0            0            0 
10296000     702.1643    67424.663    493.03083    -332.3848    750.98157    418.59677    1109.0487    -332.3848            0   -7.7670324            0            0            0            0            0            0 
10297000    620.67219    67860.649    498.76913   -337.02679    759.72211    422.69532    1036.9609   -337.02679            0   -7.7171314            0            0            0            0            0            0 
10298000    761.15431    64448.971     519.6167   -344.59705    791.47701    446.87996    1162.3057   -344.59705            0   -8.1256464            0            0            0            0            0            0 
10299000    646.80997     69372.06    505.37059   -330.87036    769.77742    438.90706    1093.2979   -330.87036            0    -7.548998            0            0            0            0            0            0 
10300000    631.77808    67946.904    497.26484   -340.56364    757.43079    416.86716    1042.9187   -340.56364            0    -7.707335            0            0            0            0            0            0 
10301000    667.15643    65925.365    515.11653   -350.26847    784.62238     434.3539     1075.794   -350.26847            0    -7.943673            0            0            0            0            0            0 
10302000    752.33879    67951.735    492.62749   -317.05269    750.36721    433.31452     1178.887   -317.05269            0   -7.7067869            0            0            0            0            0            0 
10303000    731.55893    67485.551    513.89082   -328.82834    782.75539    453.92705    1173.9329   -328.82834            0   -7.7600247            0            0            0            0            0            0 
10304000    823.11934    67905.806    512.11697   -308.84102    780.05347    471.21245    1286.3776   -308.84102            0   -7.7119995            0            0            0            0            0            0 
10305000    851.86288    66299.719    505.44696   -326.71659    769.89375    443.17716    1266.8548   -326.71659            0     -7.89882            0            0            0            0            0            0 
10306000    599.44711    68399.435    484.39651   -331.26746    737.82983    406.56237    1004.5322   -331.26746            0   -7.6563432            0            0            0            0            0            0 
10307000     655.9366    66378.263    484.32784   -345.48926    737.72523    392.23597    1027.2212   -345.48926            0   -7.8894734            0            0            0            0            0            0 
10308000    706.77199    72151.319    510.80426   -299.08831    778.05395    478.96564    1222.6686   -299.08831            0   -7.2582117            0            0            0            0            0            0 
10309000    762.75203    67769.832    478.48795   -312.85844    728.82995    415.97151    1169.8401   -312.85844            0    -7.727473            0            0            0            0            0            0 
10310000    657.29825     68032.54    480.94288   -337.71319    732.56928    394.85609    1047.0174   -337.71319            0   -7.6976334            0            0            0            0            0            0 
10311000    758.29481    68342.846    531.03777   -321.77481    808.87351     487.0987     1242.899   -321.77481            0   -7.6626827            0            0            0            0            0            0 
10312000    629.32106    65969.531    517.21207   -353.79187    787.81429    434.02242    1039.4909   -353.79187            0   -7.9383549            0            0            0            0            0            0 
10313000    762.22047    64312.517    488.17697   -348.46236     743.5882    395.12584    1110.0369   -348.46236            0   -8.1428868            0            0            0            0            0            0 
10314000    727.05992     66075.96     492.9663    -332.0513    750.88328    418.83198    1119.4633    -332.0513            0   -7.9255685            0            0            0            0            0            0 
10315000    767.44303    67684.238    495.32423   -320.90727    754.47486    433.56759    1191.1146   -320.90727            0   -7.7372452            0            0            0            0            0            0 
10316000    658.26339    67646.585    548.66519   -334.11807    835.72349    501.60542    1151.0191   -334.11807            0   -7.7415519            0            0            0            0            0            0 
10317000    585.44572    70034.602    517.92187   -330.93199    788.89545    457.96346    1055.9277   -330.93199            0   -7.4775829            0            0            0            0            0            0 
10318000    614.02523     65687.18    483.63746   -358.46198    736.67365    378.21167    966.43564   -358.46198            0   -7.9724772            0            0            0            0            0            0 
10319000    653.07021    66432.322      479.584   -341.06721    730.49945    389.43223    1022.1575   -341.06721            0   -7.8830534            0            0            0            0            0            0 
10320000    704.26708    69937.883    488.82236   -317.41545    744.57125    427.15579    1145.4887   -317.41545            0   -7.4879239            0            0            0            0            0            0 
10321000    692.06568    65459.926    519.90827   -346.13157    791.92113    445.78956    1106.4811   -346.13157            0   -8.0001548            0            0            0            0            0            0 
10322000    624.45902    67305.098     470.1511   -335.09494     716.1313    381.03636    993.99023   -335.09494            0   -7.7808303            0            0            0            0            0            0 
10323000    585.24486    66682.229    484.64114   -348.33728    738.20244    389.86516    959.01105   -348.33728            0   -7.8535099            0            0            0            0            0            0 
10324000    793.23927    66552.708    527.35007   -323.96021    803.25643    479.29622    1249.2166   -323.96021            0   -7.8687939            0            0            0            0            0            0 
10325000    705.86127    70102.828    510.98909   -315.11875    778.33548    463.21673    1184.8736   -315.11875            0   -7.4703055            0            0            0            0            0            0 
10326000    758.60194    66201.626    487.81283    -339.1737    743.03355    403.85985     1136.277    -339.1737            0    -7.910524            0            0            0            0            0            0 
10327000    757.04997     68964.39    532.69067   -315.57616     811.3912    495.81504    1257.2369   -315.57616            0   -7.5936225            0            0            0            0            0            0 
10328000    566.23161    71880.293    483.90573   -314.56243    737.08227    422.51985    1016.1006   -314.56243            0   -7.2855789            0            0            0            0            0            0 
10329000    713.46433    67996.575    496.45025   -319.09893    756.19001    437.09108    1144.6053   -319.09893            0   -7.7017048            0            0            0            0            0            0 
10330000    760.61342    68353.208    496.84407   -310.90216    756.78987    445.88771    1204.1139   -310.90216            0   -7.6615212            0            0            0            0            0            0 
10331000    673.06515    68977.892    504.78741   -318.64129    768.88912    450.24784    1127.3324   -318.64129            0   -7.5921361            0            0            0            0            0            0 
10332000    770.66748    65243.553    486.09246   -341.65372    740.41308    398.75936    1132.0574   -341.65372            0   -8.0266865            0            0            0            0            0            0 
10333000    774.95076    71214.824     555.4876   -304.51015    846.11534    541.60519    1346.4653   -304.51015            0   -7.3536592            0            0            0            0            0            0 
10334000    625.41667     68657.99    500.93928   -327.38313    763.02768    435.64455    1061.8782   -327.38313            0   -7.6275106            0            0            0            0            0            0 
10335000    637.62476    67317.768    504.40616   -336.98359    768.30841    431.32481    1057.3197   -336.98359            0   -7.7793658            0            0            0            0            0            0 
10336000    730.18179    64403.935    496.47284   -359.78372    756.22442     396.4407    1082.2751   -359.78372            0   -8.1313283            0            0            0            0            0            0 
10337000    671.63952    68120.978    477.86661   -319.69709    727.88352    408.18643    1075.4432   -319.69709            0   -7.6876399            0            0            0            0            0            0 
10338000    774.01017    66752.179    536.18885   -331.14984     816.7196    485.56976     1239.078   -331.14984            0   -7.8452801            0            0            0            0            0            0 
10339000    570.20256    69576.773    483.96491   -336.22777    737.17241    400.94465    979.53254   -336.22777            0   -7.5267869            0            0            0            0            0            0 
10340000    822.33392    64145.461    514.70004   -341.13427    783.98797    442.85371    1212.1436   -341.13427            0   -8.1640936            0            0            0            0            0            0 
10341000    672.70115    66623.056    482.12798   -338.92615    734.37442    395.44827    1049.0642   -338.92615            0   -7.8604851            0            0            0            0            0            0 
10342000    632.23283    70142.111    499.68387   -330.12088    761.11544    430.99456    1077.7376   -330.12088            0   -7.4661218            0            0            0            0            0            0 
10343000    685.17317    66289.976    499.97739   -341.57972    761.56253    419.98281    1082.3886   -341.57972            0   -7.8999809            0            0            0            0            0            0 
10344000    691.94666    66697.384    498.54959   -336.30769    759.38771    423.08002    1096.1455   -336.30769            0   -7.8517254            0            0            0            0            0            0 
10345000    661.51455    69166.999    500.70591   -327.06781     762.6722    435.60439    1102.8938   -327.06781            0   -7.5713787            0            0            0            0            0            0 
10346000     734.2062    66085.944    523.87823   -343.09162    797.96815    454.87652    1162.5013   -343.09162            0   -7.9243711            0            0            0            0            0            0 
10347000    655.34969    68146.359    483.57899   -323.58778    736.58459    412.99681    1064.3127   -323.58778            0   -7.6847766            0            0            0            0            0            0 
10348000    692.32775    65439.513    498.02135   -346.37599     758.5831    412.20711    1072.9427   -346.37599            0   -8.0026504            0            0            0            0            0            0 
10349000    802.51195    66173.069    498.69013   -318.00865    759.60178    441.59313    1216.0704   -318.00865            0   -7.9139377            0            0            0            0            0            0 
10350000    524.58776    71009.968    502.07841   -333.54097    764.76279    431.22182    974.48887   -333.54097            0   -7.3748737            0            0            0            0            0            0 
10351000    693.80721    66763.229    488.52057   -334.94944    744.11156    409.16212    1084.7036   -334.94944            0   -7.8439816            0            0            0            0            0            0 
10352000    684.18678     66995.11    523.18792   -341.19271    796.91666    455.72396     1124.212   -341.19271            0   -7.8168324            0            0            0            0            0            0 
10353000    749.09042    69015.085    532.68609   -319.37249    811.38423    492.01174    1245.9819   -319.37249            0   -7.5880447            0            0            0            0            0            0 
[...]
14939000    755.56753    69738.497    500.57759   -306.25611    762.47675    456.22064    1224.6815   -306.25611            0   -7.5093323            0            0            0            0            0            0 
14940000    757.42392    67025.051    513.53544   -326.56287    782.21407     455.6512    1196.0267   -326.56287            0   -7.8133405            0            0            0            0            0            0 
14941000    827.05289    66814.059    512.81723   -316.03198     781.1201    465.08812    1270.9805   -316.03198            0   -7.8380142            0            0            0            0            0            0 
14942000    695.93403    65894.585    506.79782   -334.97382    771.95136    436.97754    1105.7736   -334.97382            0   -7.9473836            0            0            0            0            0            0 
14943000    552.40156     67350.89     489.0171   -347.88376    744.86788    396.98411    939.57704   -347.88376            0   -7.7755401            0            0            0            0            0            0 
14944000    659.88166    66557.713    470.25162   -334.97514    716.28441    381.30927    1021.8405   -334.97514            0   -7.8682023            0            0            0            0            0            0 
14945000    677.56073    72543.519    493.78406   -301.43847    752.12889    450.69042    1167.5312   -301.43847            0   -7.2189708            0            0            0            0            0            0 
14946000    793.87103    67419.745    514.27538   -320.68139    783.34114    462.65975    1243.2317   -320.68139            0   -7.7675991            0            0            0            0            0            0 
14947000    609.45326    68531.041    464.59271    -332.3758    707.66479    375.28899    984.41006    -332.3758            0     -7.64164            0            0            0            0            0            0 
14948000    685.11665    67357.192    484.32129   -327.64131    737.71525    410.07393    1083.0884   -327.64131            0   -7.7748126            0            0            0            0            0            0 
14949000    695.67491    67197.876     484.4349   -332.59961    737.88831     405.2887    1087.0585   -332.59961            0   -7.7932455            0            0            0            0            0            0 
14950000    547.94921    68847.984    479.17729   -335.56337    729.87995    394.31658     944.4999   -335.56337            0   -7.6064616            0            0            0            0            0            0 
14951000    615.56477    68294.123     503.1221   -339.79829    766.35253    426.55424    1039.6566   -339.79829            0   -7.6681496            0            0            0            0            0            0 
14952000    818.03831    65899.621    479.36863   -334.60901    730.17139    395.56238    1181.7613   -334.60901            0   -7.9467763            0            0            0            0            0            0 
14953000    615.32419    71467.619    515.57478    -315.6213    785.32038    469.69907    1111.0403    -315.6213            0   -7.3276479            0            0            0            0            0            0 
14954000     645.0708    67156.868    491.24892   -344.39678    748.26738    403.87059     1035.662   -344.39678            0   -7.7980042            0            0            0            0            0            0 
14955000    598.37624    69115.538    485.23796   -333.91056    739.11151    405.20095    1008.3518   -333.91056            0   -7.5770161            0            0            0            0            0            0 
14956000    652.26209     69196.31    484.50578   -329.00094    737.99627    408.99533    1067.2303   -329.00094            0   -7.5681716            0            0            0            0            0            0 
14957000    621.63755     66989.53    490.48849   -346.71221    747.10909    400.39688    1007.7203   -346.71221            0   -7.8174835            0            0            0            0            0            0 
14958000    756.21694    66818.031    494.71666   -331.84543    753.54942    421.70399    1158.6166   -331.84543            0   -7.8375483            0            0            0            0            0            0 
14959000    778.85826    68405.985    534.15859    -320.4151    813.62713    493.21202    1270.2253    -320.4151            0     -7.65561            0            0            0            0            0            0 
14960000    665.48872    68969.718    516.56072   -336.51743    786.82216    450.30473    1119.6883   -336.51743            0   -7.5930359            0            0            0            0            0            0 
14961000    770.45851    66819.564    499.07315    -324.3407     760.1852     435.8445    1186.6523    -324.3407            0   -7.8373685            0            0            0            0            0            0 
14962000    611.43624    70080.258    493.62584   -337.78185    751.88789    414.10604    1039.0236   -337.78185            0   -7.4727114            0            0            0            0            0            0 
14963000    784.48194    62221.313    504.28511   -356.83892    768.12403    411.28511    1123.1507   -356.83892            0   -8.4165621            0            0            0            0            0            0 
14964000    600.24368    69953.575    506.12844    -328.9808    770.93177    441.95096    1054.3202    -328.9808            0   -7.4862442            0            0            0            0            0            0 
14965000    649.50965    68646.746    484.22226   -334.43806    737.56441    403.12635     1053.378   -334.43806            0   -7.6287599            0            0            0            0            0            0 
14966000    636.26803    66755.154     481.6959   -344.44437    733.71627     389.2719    1008.7141   -344.44437            0   -7.8449305            0            0            0            0            0            0 
14967000    627.35761    67751.249    493.35093   -347.32141    751.46915    404.14774    1024.0288   -347.32141            0   -7.7295925            0            0            0            0            0            0 
14968000    738.85761    67266.435    554.47173   -334.27379    844.56797    510.29418    1235.1223   -334.27379            0   -7.7853025            0            0            0            0            0            0 
14969000    706.01136    65404.493    517.18722    -347.6685    787.77643    440.10793    1113.5421    -347.6685            0   -8.0069354            0            0            0            0            0            0 
14970000    585.35339    70372.122    458.11241   -323.76767    697.79404    374.02637     974.7776   -323.76767            0   -7.4417189            0            0            0            0            0            0 
14971000    871.97618    65007.248    494.11154   -327.57176     752.6277    425.05594    1251.7452   -327.57176            0   -8.0558639            0            0            0            0            0            0 
14972000    697.26209    66805.303    522.34092   -340.44977    795.62652    455.17675      1134.51   -340.44977            0   -7.8390416            0            0            0            0            0            0 
14973000     719.0275    67672.071    531.62565   -334.85018    809.76896    474.91878     1184.547   -334.85018            0   -7.7386362            0            0            0            0            0            0 
14974000    625.60741    70616.555    506.27365    -325.0629    771.15296    446.09006    1090.3844    -325.0629            0     -7.41596            0            0            0            0            0            0 
14975000     685.0815    65067.559      512.751   -355.86756    781.01922    425.15166    1075.2554   -355.86756            0    -8.048397            0            0            0            0            0            0 
14976000    643.61477     69620.35    481.21667   -325.75427    732.98631    407.23204    1060.7208   -325.75427            0   -7.5220757            0            0            0            0            0            0 
14977000    697.34008    70492.515    530.34278   -322.82144    807.81491    484.99347    1201.9016   -322.82144            0   -7.4290092            0            0            0            0            0            0 
14978000     767.3396     65989.81    509.94933   -334.67542    776.75173    442.07631    1180.5591   -334.67542            0   -7.9359154            0            0            0            0            0            0 
14979000    642.36713    68100.177    468.53307   -330.83685    713.66673    382.82987    1020.8104   -330.83685            0    -7.689988            0            0            0            0            0            0 
14980000     642.9938    68004.466    484.60481   -337.13994    738.14711    401.00717    1038.7126   -337.13994            0   -7.7008111            0            0            0            0            0            0 
14981000    683.05312    68119.411    480.44504   -323.94707    731.81097     407.8639    1086.4442   -323.94707            0   -7.6878167            0            0            0            0            0            0 
14982000    669.05957    67866.501    499.11088   -333.89968    760.24267    426.34299    1088.5536   -333.89968            0    -7.716466            0            0            0            0            0            0 
14983000    701.19952    65848.622    482.74528   -341.91237    735.31468    393.40232    1066.7885   -341.91237            0    -7.952931            0            0            0            0            0            0 
14984000    766.69636    65486.197    507.72594   -337.24999    773.36507    436.11508    1168.3477   -337.24999            0   -7.9969454            0            0            0            0            0            0 
14985000    687.16034    68068.876    537.24079   -333.28263    818.32191    485.03928    1167.1935   -333.28263            0   -7.6935242            0            0            0            0            0            0 
14986000    665.22873    64366.586     500.4839   -358.28826    762.33404    404.04577    1028.5097   -358.28826            0   -8.1360467            0            0            0            0            0            0 
14987000    607.77619    69374.039    512.84169    -339.7876    781.15735    441.36976    1056.2868    -339.7876            0   -7.5487827            0            0            0            0            0            0 
14988000    645.27951    66083.507    482.83799   -349.49359    735.45589    385.96231     1007.857   -349.49359            0   -7.9246634            0            0            0            0            0            0 
14989000    585.68914    70267.792    490.09198    -319.9149    746.50513    426.59024    1026.7949    -319.9149            0   -7.4527679            0            0            0            0            0            0 
14990000    703.90108    68156.589    491.37981   -319.78893    748.46675    428.67782    1128.3512   -319.78893            0   -7.6836231            0            0            0            0            0            0 
14991000    765.37213    64827.497    506.53389   -343.90064    771.54935    427.64872    1151.2641   -343.90064            0   -8.0782009            0            0            0            0            0            0 
14992000    754.95428    67722.197    508.99411   -323.03937    775.29674    452.25737    1197.8946   -323.03937            0   -7.7329084            0            0            0            0            0            0 
14993000    624.04695    69544.794    509.30532    -339.4358    775.77078    436.33498     1069.268    -339.4358            0    -7.530248            0            0            0            0            0            0 
14994000    673.79976    65929.004    482.78016   -342.86826    735.36781    392.49955    1040.3627   -342.86826            0   -7.9432346            0            0            0            0            0            0 
14995000    734.81483    67484.022    507.36693   -324.78099    772.81824    448.03724    1171.2312   -324.78099            0   -7.7602005            0            0            0            0            0            0 
14996000     733.9297    68806.079    522.67297   -313.53601    796.13229    482.59628    1219.0698   -313.53601            0   -7.6110942            0            0            0            0            0            0 
14997000    735.99524    68335.049     546.0551    -324.8573    831.74782    506.89053    1240.3809    -324.8573            0    -7.663557            0            0            0            0            0            0 
14998000    732.02454    68101.621    500.47508   -320.95656     762.3206    441.36404    1168.4052   -320.95656            0    -7.689825            0            0            0            0            0            0 
14999000    692.59132    65661.356    482.38016   -336.30114    734.75853     398.4574    1061.6853   -336.30114            0   -7.9756127            0            0            0            0            0            0 
15000000    727.08176    66891.464    530.81015   -334.21367     808.5268    474.31313    1183.6129   -334.21367            0   -7.8289443            0            0            0            0            0            0 
Loop time of 1293.17 on 8 procs for 5000000 steps with 512 atoms

Pair  time (%) = 693.085 (53.5959)
Bond  time (%) = 0.442779 (0.0342399)
Neigh time (%) = 34.5202 (2.66942)
Comm  time (%) = 408.215 (31.567)
Outpt time (%) = 0.265293 (0.020515)
Other time (%) = 156.64 (12.1129)

Nlocal:    64 ave 70 max 58 min
Histogram: 2 1 0 1 0 0 1 0 1 2
Nghost:    1159.38 ave 1182 max 1139 min
Histogram: 2 1 0 1 0 1 0 0 2 1
Neighs:    4938.62 ave 5499 max 4413 min
Histogram: 2 1 0 1 0 0 1 0 2 1

Total # of neighbors = 39509
Ave neighs/atom = 77.166
Ave special neighs/atom = 0
Neighbor list builds = 103482
Dangerous builds = 0

Averages
Group Pressure(MPa) Volume(m3) Temperature(K) PE(J) KE(J) ET(J) ET^2(J) H(J) H^2(J^2) V^2(m6) V*H(m3*J) Hconf(J) Uext*Hconf(J^2) V*Hconf(m3*J) Uext(J)
Block1 69.845549063934456058 6.7751250258529154051e-26 499.63703034566384531 -2.301916224105081321e-18 5.2875021333168855141e-18 2.9855859092118053487e-18 8.9589134949369040028e-36 7.7106154083537736445e-18 5.97670132903124416e-35 4.5942265933587708551e-51 5.2232956112019748973e-43 2.4231132750368923674e-18 -5.5525018895506324787e-36 1.6409620166820837028e-43 -2.301916224105081321e-18
Block2 69.913047270449467874 6.7734910867273459119e-26 499.80019866665770678 -2.302148252278841394e-18 5.2892288925299675642e-18 2.9870806402511215481e-18 8.9655052485510024099e-36 7.7162163815178215859e-18 5.9825776191325355542e-35 4.5921138273867795599e-51 5.2264512385641001313e-43 2.4269874889878613402e-18 -5.5601626648995966473e-36 1.6438149270647418682e-43 -2.302148252278841394e-18
Block3 70.093862329469885708 6.7671472719911099652e-26 500.10370697674972007 -2.3042380211661557205e-18 5.2924408258728253985e-18 2.988202804706661589e-18 8.9774883977430076151e-36 7.7251280187467270774e-18 5.9967571802047917322e-35 4.583296213442848544e-51 5.2275231778866600359e-43 2.4326871928739136197e-18 -5.5824654364366328769e-36 1.6458747434507078524e-43 -2.3042380211661557205e-18
Block4 70.163195047226039947 6.7732393042356686579e-26 500.54008778884332287 -2.3007825349064384972e-18 5.297058907269400687e-18 2.9962763723629629601e-18 9.0239748180532864108e-36 7.7425786988095246144e-18 6.0249029924024469843e-35 4.5914201223549314158e-51 5.2440053533259564104e-43 2.4455197915401277793e-18 -5.5995246464894744819e-36 1.6561644389100803414e-43 -2.3007825349064384972e-18
Block5 69.808808295265407651 6.7711785886437988414e-26 500.33476032973658221 -2.3052723917121686715e-18 5.2948859911080408958e-18 2.9896135993958656761e-18 8.9823772949940858286e-36 7.7099625211432907307e-18 5.9733226045897463003e-35 4.5887797769669673641e-51 5.2200393774746477303e-43 2.4150765300352482941e-18 -5.5441775327625068205e-36 1.6348592911427988208e-43 -2.3052723917121686715e-18
Ave_blocks 69.96489240126905429 6.7720362554901668379e-26 500.08315682153022408 -2.3028714848337368897e-18 5.2922233500194246282e-18 2.9893518651856835014e-18 8.9816518508556572535e-36 7.7209002057142275306e-18 5.9908523450721520909e-35 4.5899673067020596665e-51 5.2282629516906676817e-43 2.428676855694808295e-18 -5.5677664340277689283e-36 1.6443350834500826366e-43 -2.3028714848337368897e-18
Stdev_blocks 0.13946338564403673588 2.7474393401830955984e-29 0.3321465619237358724 1.6389676978912028096e-21 3.5150029883314708258e-21 3.7061713810882784298e-21 2.2745723814833381618e-38 1.2125837501322227022e-20 1.8816629917719417704e-37 3.7622721682519990811e-54 8.2940270483982533986e-46 1.0183747245816989538e-20 2.0356348476727967937e-38 6.9820195567453329465e-46 1.6389676978912028096e-21






Properties
Group rho(kg/m3) Cp(J/K) Cp_conf(J/K) Cp_id(J/K) Cp2(J/K) kT(1/Pa) aP(1/K) aP2(1/K) Cv(J/K) uJT(K/Pa) sos(m/s) Cv2(J/K) uJT2(K/Pa) sos2(m/s) CvNVT(J/K)
Block1 201.31339433788861015 9.0936627292795010543e-20 -1.202160941585100903e-21 3.9521064979726431945e-20 3.831890403814133029e-20 8.5472623609837331045e-09 -0.0003180691419786852445 -0.00031155631658146888154 9.0535956235512258288e-20 -8.6343887793674174068e-07 764.02755464857659717 3.7934473376788641678e-20 -2.0433192317955688916e-06 766.19560540053305431 1.311150408655559976e-20
Block2 201.36195627253917451 8.2862341111563917367e-20 5.8665351387060001326e-22 3.9529441369940868588e-20 4.011609488381147161e-20 8.7626105781921561327e-09 -5.1817371943505971738e-05 -4.4041789187159660352e-05 8.2851967589328913839e-20 -8.3860932720902714819e-07 752.87299511315370637 4.0108601027111820959e-20 -1.7256390074759126449e-06 752.89619300350841513 1.2425684872480443592e-20
Block3 201.55072162582268902 8.397462011931367707e-20 -1.1327398933507178186e-21 3.9545022451852862295e-20 3.8412282558502145981e-20 8.2782168461885703276e-09 -7.9051367362028911829e-05 -0.00015427809505232561852 8.3949072662359098412e-20 -8.3771487894456922945e-07 774.29328776106410714 3.8314977047238670553e-20 -1.8976395970082357126e-06 775.15793055988410742 1.3939080013864765798e-20
Block4 201.36944152631539851 8.7163285523632404129e-20 2.6484856632009481291e-22 3.9567425220459287644e-20 3.9832273786779382457e-20 7.9966431558764068523e-09 -9.7520449865542280362e-05 -0.00010441597439072296965 8.7122965668690125167e-20 -8.1500607479286629155e-07 788.22431880690101025 3.97860504322363941e-20 -1.7893124811070486852e-06 788.49962986728621672 1.3385837204486971331e-20
Block5 201.43072556164941034 8.3820427647645696678e-20 -1.2201261792371071713e-21 3.9556884123295171623e-20 3.8336757944058063699e-20 8.3247023642872574435e-09 -0.00021960430386722373493 -0.00018466032011926715103 8.3624164877610578484e-20 -8.965793377119086689e-07 773.14655174081428868 3.8197985448674612746e-20 -1.9294227164240415616e-06 773.64236854030639279 1.2900652584027960543e-20
Ave_blocks 201.40524786484306219 8.5751460338990141157e-20 -5.4070498679644623216e-22 3.9543967629054926826e-20 3.9003262642258478808e-20 8.3818870611056241104e-09 -0.00015321252700339723003 -0.00015979049906618886029 8.5616825406700209282e-20 -8.502696993190224887e-07 770.51294161410191919 3.88684174664100256e-20 -1.8770666067621614992e-06 771.27834547430370549 1.3152551752283146399e-20
Stdev_blocks 0.081737450932910474255 2.9702614370592030387e-21 7.9617789261025322404e-22 1.7051396536354616959e-23 7.9843443647287124158e-22 2.5873919525264356146e-10 0.00010046694387822014088 8.9605646903528256503e-05 2.8587703842905751834e-21 2.7767322091427326642e-08 11.731562197805530445 8.95335967636991491e-22 1.1084714689353146952e-07 11.670048823838854446 5.0329362627794101192e-22






