LAMMPS (28 Oct 2012)
Scanning data file ...
Reading data file ...
  orthogonal box = (0 0 0) to (100 100 100)
  2 by 2 by 2 MPI processor grid
  512 atoms
Finding 1-2 1-3 1-4 neighbors ...
  0 = max # of 1-2 neighbors
  0 = max # of 1-3 neighbors
  0 = max # of 1-4 neighbors
  1 = max # of special neighbors
WARNING: Resetting reneighboring criteria during minimization (min.cpp:173)
Setting up minimization ...
Memory usage per processor = 4.05499 Mbytes
Step Temp E_pair E_mol TotEng Press 
       0       600.15    1409.7233            0    2323.8682    454.30411 
     701       600.15   -217.27527            0    696.86958    41.559208 
Loop time of 0.0544043 on 8 procs for 701 steps with 512 atoms

Minimization stats:
  Stopping criterion = energy tolerance
  Energy initial, next-to-last, final = 
         1409.72334813     -217.256630745     -217.275265106
  Force two-norm initial, final = 5034.49 0.337455
  Force max component initial, final = 2457.89 0.147661
  Final line search alpha, max atom move = 0.254892 0.0376377
  Iterations, force evaluations = 701 710

Pair  time (%) = 0.00891495 (16.3865)
Bond  time (%) = 5.94258e-05 (0.10923)
Neigh time (%) = 0.0031378 (5.76755)
Comm  time (%) = 0.0211519 (38.879)
Outpt time (%) = 0 (0)
Other time (%) = 0.0211403 (38.8578)

Nlocal:    64 ave 74 max 52 min
Histogram: 1 0 0 1 1 2 0 2 0 1
Nghost:    235.125 ave 266 max 224 min
Histogram: 4 0 2 0 0 1 0 0 0 1
Neighs:    316.25 ave 371 max 226 min
Histogram: 1 0 0 1 1 1 0 1 0 3

Total # of neighbors = 2530
Ave neighs/atom = 4.94141
Ave special neighs/atom = 0
Neighbor list builds = 60
Dangerous builds = 0
Setting up run ...
Memory usage per processor = 3.36354 Mbytes
Step Temp E_pair E_mol TotEng Press Volume 
     701       600.15   -217.27527            0    696.86958    41.559208      1000000 
 5000701    609.61554   -279.26332            0    649.29938    660.24487    79488.811 
Loop time of 1209.89 on 8 procs for 5000000 steps with 512 atoms

Pair  time (%) = 595.29 (49.202)
Bond  time (%) = 0.443237 (0.0366346)
Neigh time (%) = 29.3855 (2.42878)
Comm  time (%) = 425.885 (35.2004)
Outpt time (%) = 4.59552e-05 (3.7983e-06)
Other time (%) = 158.885 (13.1322)

Nlocal:    64 ave 71 max 56 min
Histogram: 1 0 2 0 0 1 1 0 2 1
Nghost:    1033.88 ave 1060 max 1000 min
Histogram: 1 1 0 1 1 0 0 1 0 3
Neighs:    4172.5 ave 4743 max 3608 min
Histogram: 1 2 0 0 0 1 1 1 1 1

Total # of neighbors = 33380
Ave neighs/atom = 65.1953
Ave special neighs/atom = 0
Neighbor list builds = 113248
Dangerous builds = 5
Setting up run ...
Memory usage per processor = 3.9402 Mbytes
Step Press Volume Temp PotEng KinEng TotEng Enthalpy E_vdwl E_coul E_tail E_long E_bond E_angle E_dihed E_impro E_mol 
10000000    660.24487    79488.811    609.61554   -279.26332     928.5627    649.29938    1414.6967   -279.26332            0   -6.5882171            0            0            0            0            0            0 
10001000     710.2097    78916.544    622.69475   -266.89736    948.48486    681.58751    1498.9798   -266.89736            0   -6.6359919            0            0            0            0            0            0 
10002000    723.03743    81446.345    625.00338    -256.6513    952.00136    695.35006    1554.1822    -256.6513            0   -6.4298717            0            0            0            0            0            0 
10003000     700.2344    77627.059    593.92307    -278.8818    904.66002    625.77823    1418.5213    -278.8818            0   -6.7462242            0            0            0            0            0            0 
10004000    589.55337    79543.037    550.88425   -281.85377    839.10355    557.24978    1241.1633   -281.85377            0   -6.5837258            0            0            0            0            0            0 
10005000    673.06568    82265.938     600.5626   -261.45461     914.7733    653.31869    1460.8389   -261.45461            0   -6.3658126            0            0            0            0            0            0 
10006000    706.85661    75861.461    610.61572   -296.97472    930.08617    633.11145    1415.1505   -296.97472            0   -6.9032357            0            0            0            0            0            0 
10007000    668.66149    84190.948    604.42238   -239.25217    920.65251    681.40034    1502.4087   -239.25217            0   -6.2202595            0            0            0            0            0            0 
10008000    786.50304    79225.619    652.80578   -256.42565    994.34981    737.92416     1646.669   -256.42565            0   -6.6101035            0            0            0            0            0            0 
10009000    740.78892    78126.928    584.65177   -263.74863    890.53803    626.78939    1470.8451   -263.74863            0   -6.7030608            0            0            0            0            0            0 
10010000    688.22969    80326.074    624.42035   -269.06303    951.11328    682.05026     1488.293   -269.06303            0   -6.5195461            0            0            0            0            0            0 
10011000    653.54346    78866.434    635.14116   -279.62943    967.44316    687.81374    1439.5103   -279.62943            0   -6.6402082            0            0            0            0            0            0 
10012000    628.51059    76397.636     563.6452   -291.29051    858.54094    567.25043    1267.5251   -291.29051            0   -6.8547873            0            0            0            0            0            0 
10013000    727.12958    83769.943    620.29466   -238.06565    944.82906    706.76341    1595.0967   -238.06565            0   -6.2515209            0            0            0            0            0            0 
10014000    739.86189    78746.188    610.02693   -264.54324    929.18932    664.64607    1514.3274   -264.54324            0   -6.6503479            0            0            0            0            0            0 
10015000    612.27091    81413.385    615.73054   -274.59417    937.87702    663.28285    1390.2509   -274.59417            0   -6.4324748            0            0            0            0            0            0 
10016000    647.95615    80848.586    579.50549   -268.85669    882.69925    613.84256    1377.8436   -268.85669            0   -6.4774113            0            0            0            0            0            0 
10017000    648.21356    78771.415    593.67988     -278.381    904.28959    625.90859    1370.5765     -278.381            0   -6.6482181            0            0            0            0            0            0 
10018000    692.25727    80852.176    619.25491   -262.84767    943.24533    680.39765    1496.6701   -262.84767            0   -6.4771237            0            0            0            0            0            0 
10019000    730.66775    76350.659    631.58624    -283.1674    962.02834    678.86093    1492.4566    -283.1674            0   -6.8590049            0            0            0            0            0            0 
10020000    752.80521     81047.32    602.96702   -255.26701     918.4357    663.16869    1552.9784   -255.26701            0   -6.4615282            0            0            0            0            0            0 
10021000    601.13823    82173.693     620.2758   -279.67246    944.80034    665.12788    1385.5434   -279.67246            0   -6.3729586            0            0            0            0            0            0 
10022000    646.34194    75801.546    556.92064   -292.53562    848.29814    555.76252    1270.2856   -292.53562            0   -6.9086922            0            0            0            0            0            0 
10023000    688.54026    77648.232    605.06235   -274.92154    921.62729    646.70575    1426.4224   -274.92154            0   -6.7443847            0            0            0            0            0            0 
10024000    795.13962    78580.712    592.02185    -257.7147    901.76409    644.04939    1555.2946    -257.7147            0   -6.6643523            0            0            0            0            0            0 
10025000    667.43524    80548.105    603.49029   -267.08544    919.23275    652.14731    1436.1912   -267.08544            0    -6.501575            0            0            0            0            0            0 
10026000    712.72966    76234.301    597.39578   -279.88191    909.94963    630.06773    1422.4799   -279.88191            0    -6.869474            0            0            0            0            0            0 
10027000    600.37495    84076.032    614.30583    -258.8646    935.70692    676.84232    1412.9997    -258.8646            0   -6.2287615            0            0            0            0            0            0 
10028000    741.69765    78671.162    603.32731   -257.27425    918.98451    661.71025    1512.6883   -257.27425            0   -6.6566901            0            0            0            0            0            0 
10029000    690.27966    78362.144    594.48685   -272.39172    905.51877    633.12705    1422.0004   -272.39172            0   -6.6829405            0            0            0            0            0            0 
10030000    644.30211    77217.917    586.44182   -287.13356    893.26463    606.13107    1331.7081   -287.13356            0   -6.7819693            0            0            0            0            0            0 
10031000    635.45013    80604.578    589.09541   -279.32521    897.30655    617.98134    1364.9753   -279.32521            0   -6.4970199            0            0            0            0            0            0 
10032000    729.89755    78816.783    579.12344   -268.74703    882.11731    613.37028    1452.3597   -268.74703            0   -6.6443913            0            0            0            0            0            0 
10033000    657.88344    77631.105    615.61439   -289.42168    937.70011    648.27842    1393.1144   -289.42168            0   -6.7458726            0            0            0            0            0            0 
10034000    636.72517    78263.182    608.37611   -285.11802     926.6748    641.55678    1368.3074   -285.11802            0    -6.691391            0            0            0            0            0            0 
10035000    756.01989     75071.52     575.2061   -286.53692    876.15045    589.61353    1417.3352   -286.53692            0   -6.9758751            0            0            0            0            0            0 
10036000    584.17295    83160.157    611.59368   -272.67943    931.57578    658.89635    1367.3846   -272.67943            0   -6.2973612            0            0            0            0            0            0 
10037000    643.77956     79508.27    616.46706   -281.06604    938.99889    657.93286    1404.4252   -281.06604            0   -6.5866047            0            0            0            0            0            0 
10038000    650.68271    79620.714    615.32442   -282.32024    937.25843    654.93818    1410.5021   -282.32024            0   -6.5773028            0            0            0            0            0            0 
10039000    666.52521    80201.994    598.70638   -265.67126    911.94592    646.27466    1425.8851   -265.67126            0   -6.5296325            0            0            0            0            0            0 
10040000    695.77811    80121.432    576.01918   -265.34436    877.38892    612.04456    1425.0536   -265.34436            0    -6.536198            0            0            0            0            0            0 
10041000    709.77879    78761.982    625.81531   -269.39444    953.23809    683.84364    1499.1401   -269.39444            0   -6.6490143            0            0            0            0            0            0 
10042000    640.01269    81656.517    617.44782   -277.71307    940.49277     662.7797    1424.9558   -277.71307            0   -6.4133221            0            0            0            0            0            0 
10043000    621.25373    80627.696    594.67826   -267.19598    905.81032    638.61434    1369.1293   -267.19598            0    -6.495157            0            0            0            0            0            0 
10044000    742.37767    74628.371    571.81518    -280.7605    870.98542    590.22492    1398.2126    -280.7605            0   -7.0172983            0            0            0            0            0            0 
10045000    773.08679    80272.098    636.26764   -251.67988    969.15901    717.47913    1622.5212   -251.67988            0     -6.52393            0            0            0            0            0            0 
10046000    693.39854    79297.516    580.36918   -261.13163    884.01482    622.88319    1424.7798   -261.13163            0   -6.6041103            0            0            0            0            0            0 
10047000    704.99933    75929.143    581.87755   -287.68827    886.31235    598.62408    1379.3042   -287.68827            0   -6.8970822            0            0            0            0            0            0 
10048000    687.83887    82424.289     569.3493   -249.33045     867.2294    617.89895     1444.732   -249.33045            0   -6.3535828            0            0            0            0            0            0 
10049000    660.44374    79823.251     619.3323    -284.8316     943.3632     658.5316    1427.3807    -284.8316            0   -6.5606141            0            0            0            0            0            0 
10050000    672.96696    79822.149    597.95709   -264.74077    910.80461    646.06384    1429.4809   -264.74077            0   -6.5607047            0            0            0            0            0            0 
10051000     629.6266    77776.387    550.06263   -276.35523    837.85206    561.49683    1275.6752   -276.35523            0   -6.7332717            0            0            0            0            0            0 
10052000    752.80218    78601.503    589.51776   -257.09788    897.94988      640.852    1503.8059   -257.09788            0   -6.6625894            0            0            0            0            0            0 
10053000    611.66166    82503.229    634.75626   -268.84591    966.85689    698.01097    1433.9776   -268.84591            0   -6.3475036            0            0            0            0            0            0 
10054000    625.86837    80439.154    562.59384   -273.15604    856.93952    583.78348    1318.0038   -273.15604            0   -6.5103811            0            0            0            0            0            0 
10055000    758.28301    75333.759    584.33725   -285.38646    890.05896     604.6725     1437.772   -285.38646            0   -6.9515918            0            0            0            0            0            0 
10056000    713.81401    80321.029    583.58948   -256.09049    888.91996    632.82947    1468.9911   -256.09049            0   -6.5199557            0            0            0            0            0            0 
10057000    794.66586      79808.9    600.85522   -243.97302    915.21903    671.24601    1596.1822   -243.97302            0   -6.5617938            0            0            0            0            0            0 
10058000    824.84497    76074.152    620.72167   -269.15307    945.47949    676.32641    1591.4618   -269.15307            0   -6.8839354            0            0            0            0            0            0 
10059000    626.58933      81785.8    602.54782   -264.83754    917.79719    652.95965    1400.3316   -264.83754            0   -6.4031842            0            0            0            0            0            0 
10060000    720.25732    80044.135    609.64187     -257.904     928.6028     670.6988    1511.4995     -257.904            0   -6.5425099            0            0            0            0            0            0 
10061000    683.54013    80137.966    588.35519   -264.78701    896.17906    631.39205    1430.2659   -264.78701            0   -6.5348495            0            0            0            0            0            0 
10062000    660.56211    79580.423    578.59464   -271.20453    881.31184    610.10732    1376.7549   -271.20453            0   -6.5806329            0            0            0            0            0            0 
10063000    671.23927    81923.721    600.76889   -262.97845    915.08753    652.10908    1454.0879   -262.97845            0   -6.3924043            0            0            0            0            0            0 
10064000    722.85777     81787.22    565.96509   -240.23933     862.0746    621.83527    1484.0475   -240.23933            0    -6.403073            0            0            0            0            0            0 
10065000    839.57748    73420.031    616.67315   -275.32002     939.3128    663.99278    1562.9753   -275.32002            0   -7.1327884            0            0            0            0            0            0 
10066000    740.08273     76484.79    599.36981    -281.0903    912.95646    631.86616    1457.3931    -281.0903            0   -6.8469764            0            0            0            0            0            0 
10067000    577.23521    82873.856    572.77175   -265.65737    872.44246    606.78509     1304.449   -265.65737            0   -6.3191164            0            0            0            0            0            0 
10068000    640.14609    79380.484    640.17933   -288.39048    975.11727     686.7268     1427.813   -288.39048            0   -6.5972077            0            0            0            0            0            0 
10069000    751.91324    78778.428    597.89812   -265.09131    910.71479    645.62348    1509.4985   -265.09131            0   -6.6476262            0            0            0            0            0            0 
10070000    615.78968    85828.354    595.68886   -244.80286    907.34965    662.54679    1433.3421   -244.80286            0   -6.1015914            0            0            0            0            0            0 
10071000     741.3149    81583.609    579.90142   -247.49093    883.30233    635.81141    1517.8377   -247.49093            0   -6.4190535            0            0            0            0            0            0 
10072000    679.06617    77507.865    608.33669   -273.75429    926.61476    652.86047    1420.4583   -273.75429            0   -6.7565988            0            0            0            0            0            0 
10073000    629.93701    82762.159    613.90053   -265.07012    935.08956    670.01944    1430.3542   -265.07012            0   -6.3276448            0            0            0            0            0            0 
10074000    759.88497    74334.649    614.01746   -297.40973    935.26767    637.85794    1461.6451   -297.40973            0   -7.0450261            0            0            0            0            0            0 
10075000    683.03726    82163.636    585.15572    -243.3421    891.30565    647.96355    1466.4282    -243.3421            0   -6.3737387            0            0            0            0            0            0 
10076000    699.68519    81723.866    601.41979   -255.43913    916.07897    660.63984    1494.5658   -255.43913            0   -6.4080368            0            0            0            0            0            0 
10077000    751.74471    79755.898    593.54549   -248.35483     904.0849    655.73006    1530.1279   -248.35483            0   -6.5661545            0            0            0            0            0            0 
10078000    614.59675    75784.777    583.86903   -297.65142    889.34577    591.69435    1270.9732   -297.65142            0   -6.9102209            0            0            0            0            0            0 
10079000     683.3169    80351.228     607.7493   -254.65599    925.72005    671.06406    1471.8023   -254.65599            0   -6.5175052            0            0            0            0            0            0 
10080000    748.12765    77146.836    639.83385   -284.86923    974.59103     689.7218    1531.4458   -284.86923            0   -6.7882181            0            0            0            0            0            0 
10081000    759.53724    79585.171    620.59706   -259.90995    945.28968    685.37973    1566.9504   -259.90995            0   -6.5802402            0            0            0            0            0            0 
10082000    723.58644    81389.694    631.59115   -252.23382     962.0358    709.80199    1568.6884   -252.23382            0   -6.4343472            0            0            0            0            0            0 
10083000    581.93496    78399.712    591.64877   -286.92198    901.19581    614.27384    1279.6463   -286.92198            0   -6.6797381            0            0            0            0            0            0 
10084000    616.22547     81707.79    578.44313   -270.45732    881.08107    610.62375     1344.933   -270.45732            0   -6.4092977            0            0            0            0            0            0 
10085000    670.97748    80430.035    588.40835   -276.97783    896.26002    619.28219    1406.3318   -276.97783            0   -6.5111192            0            0            0            0            0            0 
10086000    639.18675    80146.545    595.03754   -264.43804    906.35757    641.91953    1389.0363   -264.43804            0     -6.53415            0            0            0            0            0            0 
10087000    731.95348    76237.501    625.59803   -281.44367    952.90713    671.46346    1485.2828   -281.44367            0   -6.8691857            0            0            0            0            0            0 
10088000    672.26542    79352.037    605.33719   -263.49725    922.04594    658.54869      1436.54   -263.49725            0   -6.5995728            0            0            0            0            0            0 
10089000    736.64179    77728.005    585.98597    -266.7022    892.57028    625.86807    1460.9128    -266.7022            0   -6.7374628            0            0            0            0            0            0 
10090000    757.11373    80839.312    616.05638   -244.94868    938.37335    693.42467    1586.0303   -244.94868            0   -6.4781544            0            0            0            0            0            0 
10091000    622.44487    81626.908    625.46629   -271.83628    952.70645    680.87017    1421.8564   -271.83628            0   -6.4156484            0            0            0            0            0            0 
10092000    648.02673    79944.659    586.95988   -267.16953    894.05374    626.88421    1382.4256   -267.16953            0   -6.5506508            0            0            0            0            0            0 
10093000    540.07111    77993.911     566.9936   -294.21297    863.64121    569.42824    1183.7382   -294.21297            0   -6.7144927            0            0            0            0            0            0 
10094000    676.75077    84043.979     640.1108   -252.37509    975.01289    722.63781     1552.128   -252.37509            0    -6.231137            0            0            0            0            0            0 
10095000    719.59396    75968.477     569.7035   -278.23298    867.76891    589.53593    1386.7901   -278.23298            0   -6.8935112            0            0            0            0            0            0 
10096000    634.68843    81638.634    607.37765   -273.73053    925.15395    651.42342    1407.0935   -273.73053            0    -6.414727            0            0            0            0            0            0 
10097000    631.52072    81998.291    641.40432   -277.41854    976.98316    699.56462    1454.7756   -277.41854            0   -6.3865909            0            0            0            0            0            0 
10098000    643.94004     78185.71    584.79599   -285.50111     890.7577    605.25659    1339.5146   -285.50111            0   -6.6980212            0            0            0            0            0            0 
10099000     659.9057    78377.236    576.28692   -282.79479    877.79674    595.00195    1349.3082   -282.79479            0   -6.6816536            0            0            0            0            0            0 
10100000    627.99022    83936.848    592.42431    -260.9444    902.37712    641.43272    1410.1762    -260.9444            0   -6.2390899            0            0            0            0            0            0 
10101000    765.15313    77692.405    605.14534   -269.86063    921.75371    651.89308    1518.8606   -269.86063            0     -6.74055            0            0            0            0            0            0 
10102000     718.2818    81142.711    616.22696   -254.44756    938.63317    684.18561    1534.1882   -254.44756            0   -6.4539321            0            0            0            0            0            0 
10103000    930.32203    73176.094    623.02877   -274.38289    948.99364    674.61074    1667.4488   -274.38289            0    -7.156566            0            0            0            0            0            0 
10104000    690.98832    83292.758    594.63285   -242.50649    905.74114    663.23466    1502.6054   -242.50649            0   -6.2873358            0            0            0            0            0            0 
10105000    681.95415    80412.464    625.28765   -275.11953    952.43436    677.31482    1477.0652   -275.11953            0   -6.5125419            0            0            0            0            0            0 
10106000    700.34143    78600.739    621.59857   -275.75695    946.81517    671.05821    1473.8674   -275.75695            0   -6.6626542            0            0            0            0            0            0 
10107000    622.64185    79565.822    582.65016   -284.49792    887.48919    602.99127    1325.4961   -284.49792            0   -6.5818404            0            0            0            0            0            0 
10108000    706.06147    78069.764    596.03121   -280.76224    907.87113    627.10889    1431.0075   -280.76224            0   -6.7079689            0            0            0            0            0            0 
10109000    699.72988    78214.472    616.03972   -278.40827    938.34797     659.9397    1458.1061   -278.40827            0   -6.6955581            0            0            0            0            0            0 
10110000    801.09847    73657.851    632.38215    -280.2805    963.24065    682.96016    1543.5195    -280.2805            0   -7.1097587            0            0            0            0            0            0 
10111000    711.04111    82251.432    580.15128   -235.20838    883.68291    648.47453    1501.4059   -235.20838            0   -6.3669353            0            0            0            0            0            0 
10112000    692.51664    77829.572    597.78272   -270.81232    910.53901     639.7267    1425.7777   -270.81232            0   -6.7286705            0            0            0            0            0            0 
10113000    668.28398     79330.32    606.16193   -271.32214    923.30218    651.98004    1425.1521   -271.32214            0   -6.6013795            0            0            0            0            0            0 
10114000    677.85948    83793.301     614.7491   -250.62725     936.3821    685.75484    1514.1258   -250.62725            0   -6.2497782            0            0            0            0            0            0 
10115000    716.53437    75938.305    571.30918   -285.72238    870.21467    584.49229    1378.0414   -285.72238            0   -6.8962501            0            0            0            0            0            0 
10116000    717.62339    79471.188    592.60892    -255.5127    902.65831    647.14561    1478.8753    -255.5127            0   -6.5896781            0            0            0            0            0            0 
10117000    716.74005    82235.845    601.11344   -244.64115    915.61235     670.9712    1530.5758   -244.64115            0   -6.3681421            0            0            0            0            0            0 
10118000    775.97686    76803.956    588.76169   -266.39426    896.79824    630.40398     1499.581   -266.39426            0   -6.8185231            0            0            0            0            0            0 
10119000     670.3624    80029.492     585.8042   -268.95576    892.29341    623.33765    1405.7498   -268.95576            0   -6.5437069            0            0            0            0            0            0 
10120000      772.443    77245.975    600.23957   -273.15746    914.28128    641.12382     1511.322   -273.15746            0   -6.7795059            0            0            0            0            0            0 
10121000    707.71499    80836.397     608.3016   -265.61267    926.56131    660.94864    1495.2851   -265.61267            0    -6.478388            0            0            0            0            0            0 
10122000      766.762    79648.605    623.52273   -267.86527    949.74604    681.88077    1572.5463   -267.86527            0   -6.5749996            0            0            0            0            0            0 
10123000      666.276    81406.446    571.63871   -258.16928    870.71661    612.54733    1403.5699   -258.16928            0   -6.4330231            0            0            0            0            0            0 
10124000    706.26664    76895.157    599.94895   -279.10905     913.8386    634.72955    1426.7631   -279.10905            0    -6.810436            0            0            0            0            0            0 
10125000    590.84862     82945.43    608.03024    -262.6166    926.14798    663.53138    1378.2656    -262.6166            0   -6.3136637            0            0            0            0            0            0 
10126000    723.21526     79989.24    575.99088   -256.27546    877.34581    621.07035    1464.7451   -256.27546            0   -6.5469999            0            0            0            0            0            0 
10127000    800.61273    73524.537    627.61829   -287.72676    955.98438    668.25761    1526.7386   -287.72676            0   -7.1226501            0            0            0            0            0            0 
10128000    618.02421    81806.142    582.83559   -260.19474    887.77164     627.5769     1364.916   -260.19474            0    -6.401592            0            0            0            0            0            0 
10129000     626.2807    77254.719    610.95009   -295.31016    930.59547    635.28531    1340.9038   -295.31016            0   -6.7787386            0            0            0            0            0            0 
10130000    754.56475    77602.354    647.32269   -281.90401    985.99799    704.09398    1558.0732   -281.90401            0   -6.7483719            0            0            0            0            0            0 
10131000    696.54213    81863.872    601.96994   -254.88539    916.91697    662.03158    1493.6336   -254.88539            0   -6.3970777            0            0            0            0            0            0 
10132000     621.0775    80243.081     573.1207   -268.13546    872.97398    604.83851    1331.6626   -268.13546            0   -6.5262891            0            0            0            0            0            0 
10133000    681.66896     80559.34     588.3942   -260.47804    896.23847    635.76043    1436.6365   -260.47804            0   -6.5006683            0            0            0            0            0            0 
10134000    692.86843    79258.768    615.81933   -268.57777    938.01227    669.43449    1470.3265   -268.57777            0    -6.607339            0            0            0            0            0            0 
10135000    706.95492     84114.97    584.05726   -233.95019    889.63248    655.68229    1522.9255   -233.95019            0   -6.2258781            0            0            0            0            0            0 
10136000    682.19711     83202.31    590.95667   -245.75376    900.14161    654.38786    1482.1797   -245.75376            0   -6.2941707            0            0            0            0            0            0 
10137000    769.59234    76044.542    627.70517   -268.02162    956.11671    688.09509    1541.5973   -268.02162            0   -6.8866158            0            0            0            0            0            0 
10138000    641.11018    85034.085    603.57234   -248.11036    919.35773    671.24737    1466.3105   -248.11036            0   -6.1585838            0            0            0            0            0            0 
10139000    662.01958    81244.913    575.81098    -250.6655     877.0718    626.40629    1410.8159    -250.6655            0   -6.4458133            0            0            0            0            0            0 
10140000    696.90764    76537.508    596.96153   -285.75935    909.28819    623.52884    1401.4318   -285.75935            0   -6.8422602            0            0            0            0            0            0 
10141000    666.14979    80234.707    593.52942   -258.65177    904.06042    645.40864    1424.8978   -258.65177            0   -6.5269702            0            0            0            0            0            0 
10142000    582.37649    83651.841    560.73554   -263.69794    854.10898    590.41104    1300.8966   -263.69794            0   -6.2603469            0            0            0            0            0            0 
10143000    596.03677    79554.895    590.86697   -285.30606    900.00499    614.69893    1306.2366   -285.30606            0   -6.5827445            0            0            0            0            0            0 
10144000    680.14729    78762.896    557.29568   -271.98824    848.86939    576.88115      1358.15   -271.98824            0   -6.6489372            0            0            0            0            0            0 
10145000    755.89643    78879.228    607.99727   -263.05131    926.09775    663.04644     1532.609   -263.05131            0   -6.6391313            0            0            0            0            0            0 
10146000    594.63069     82714.65    634.90931   -276.17322    967.09002     690.9168    1408.2248   -276.17322            0   -6.3312792            0            0            0            0            0            0 
10147000    714.61052    77259.364    607.48737   -283.25622    925.32108    642.06486    1447.2512   -283.25622            0   -6.7783311            0            0            0            0            0            0 
10148000    660.32824    77999.028    567.98164   -279.07366    865.14619    586.07253    1337.2196   -279.07366            0   -6.7140522            0            0            0            0            0            0 
10149000    560.01445      82501.9    586.17672   -274.60601    892.86083    618.25482    1292.0673   -274.60601            0   -6.3476059            0            0            0            0            0            0 
10150000     618.5197    82078.918     575.2259   -273.97683    876.18061    602.20378    1342.5946   -273.97683            0   -6.3803173            0            0            0            0            0            0 
10151000    698.07487    74854.447    608.97306   -291.84518    927.58407    635.73889      1397.81   -291.84518            0   -6.9961047            0            0            0            0            0            0 
10152000    586.58163    79077.538    546.11434   -279.43398    831.83805    552.40407     1228.888   -279.43398            0   -6.6224816            0            0            0            0            0            0 
10153000     577.0083    82660.798    598.04419   -277.35395    910.93729    633.58334    1329.1801   -277.35395            0    -6.335404            0            0            0            0            0            0 
10154000    831.57971    75679.441    592.00216   -256.77441     901.7341    644.95969    1562.7801   -256.77441            0    -6.919839            0            0            0            0            0            0 
10155000    644.79924    77596.974    625.01755   -286.55669    952.02294    665.46625    1395.1677   -286.55669            0   -6.7488398            0            0            0            0            0            0 
10156000    625.46125    81432.425    586.77045   -271.91105    893.76518    621.85413    1364.6572   -271.91105            0   -6.4309708            0            0            0            0            0            0 
10157000    888.66802    72375.935    624.62706   -288.94749    951.42814    662.48065    1600.4953   -288.94749            0   -7.2356861            0            0            0            0            0            0 
10158000    698.89656    80288.182    621.18058   -262.96619    946.17849     683.2123    1501.5648   -262.96619            0    -6.522623            0            0            0            0            0            0 
10159000    714.03144    79733.308    610.23922   -266.44273    929.51267    663.06994    1493.3661   -266.44273            0   -6.5680148            0            0            0            0            0            0 
10160000    685.98753    78572.724    588.66966   -281.48013    896.65805    615.17792    1401.2528   -281.48013            0   -6.6650298            0            0            0            0            0            0 
10161000    603.10685    78838.145    582.58265   -286.68377    887.38635    600.70258    1294.1388   -286.68377            0   -6.6425909            0            0            0            0            0            0 
10162000    613.65886    81442.916    578.49337   -271.21321     881.1576    609.94439    1338.8247   -271.21321            0   -6.4301424            0            0            0            0            0            0 
10163000    624.40821    79303.661     564.5784   -276.59472     859.9624    583.36768    1305.5348   -276.59472            0   -6.6035986            0            0            0            0            0            0 
10164000    648.74832    78577.906    579.04261   -278.55935     881.9942    603.43485    1346.8863   -278.55935            0   -6.6645902            0            0            0            0            0            0 
10165000    653.57564    82399.273    597.51725    -261.8464    910.13464    648.28824    1433.6959    -261.8464            0   -6.3555117            0            0            0            0            0            0 
10166000    760.00078    81793.778    632.90904    -246.7115    964.04322    717.33172    1623.9202    -246.7115            0   -6.4025597            0            0            0            0            0            0 
10167000    729.81535    79814.902    594.21908   -253.63752     905.1109    651.47338    1500.9919   -253.63752            0   -6.5613003            0            0            0            0            0            0 
10168000    625.78954    77762.068    622.00564   -281.30237    947.43522    666.13285    1375.8283   -281.30237            0   -6.7345116            0            0            0            0            0            0 
10169000    659.17885    79459.811    576.64101   -270.24621    878.33608    608.08987    1371.9726   -270.24621            0   -6.5906216            0            0            0            0            0            0 
10170000     648.0521    77120.255    572.54241   -291.74986    872.09313    580.34327    1309.2203   -291.74986            0   -6.7905577            0            0            0            0            0            0 
10171000    598.51269    80160.493    619.51198   -284.05157    943.63689    659.58531    1359.2817   -284.05157            0   -6.5330131            0            0            0            0            0            0 
10172000    674.41302    78356.942      594.638   -274.30266      905.749    631.44634    1402.1356   -274.30266            0   -6.6833842            0            0            0            0            0            0 
10173000     658.2972    85940.854    593.23114   -241.89932    903.60607    661.70675    1486.7896   -241.89932            0   -6.0936041            0            0            0            0            0            0 
10174000    658.70168    75175.745    600.00519   -300.89964    913.92427    613.02463    1335.1995   -300.89964            0   -6.9662036            0            0            0            0            0            0 
10175000    644.87586    81606.599    605.01082   -262.75797    921.54881    658.79084    1426.2889   -262.75797            0   -6.4172451            0            0            0            0            0            0 
10176000    686.20325    82445.121    597.15119   -257.99183    909.57708    651.58524    1476.6606   -257.99183            0   -6.3519774            0            0            0            0            0            0 
10177000    689.27255    78051.634    573.74707   -284.28877    873.92806    589.63929    1374.2403   -284.28877            0    -6.709527            0            0            0            0            0            0 
10178000    706.45356    79709.163    571.14225   -260.17618    869.96041    609.78424    1431.0198   -260.17618            0   -6.5700043            0            0            0            0            0            0 
10179000     672.2712    79245.143    599.53441   -278.74318    913.20718      634.464     1411.414   -278.74318            0    -6.608475            0            0            0            0            0            0 
10180000    775.32747    77402.505    645.12575   -276.35453    982.65163    706.29711    1581.5148   -276.35453            0   -6.7657959            0            0            0            0            0            0 
10181000    702.86213    78991.096    601.56378   -267.26566     916.2983    649.03264    1458.7327   -267.26566            0   -6.6297288            0            0            0            0            0            0 
10182000    652.59611    79793.485    576.86716   -271.53089    878.68057    607.14968    1366.5798   -271.53089            0   -6.5630615            0            0            0            0            0            0 
10183000    692.46614    78464.712    601.94746   -273.52975    916.88272    643.35298    1435.7609   -273.52975            0   -6.6742046            0            0            0            0            0            0 
10184000     737.1988     79506.01    641.59216   -259.87778    977.26929    717.39151    1572.1835   -259.87778            0   -6.5867919            0            0            0            0            0            0 
10185000    739.02662    83059.884    604.91342   -235.68309    921.40045    685.71736    1580.9322   -235.68309            0   -6.3049636            0            0            0            0            0            0 
10186000    678.44624    77988.737    580.39544   -278.17132    884.05481    605.88349    1377.5386   -278.17132            0   -6.7149382            0            0            0            0            0            0 
10187000    689.16786    77679.547    587.74514   -275.94222    895.24983    619.30762    1400.0497   -275.94222            0   -6.7416658            0            0            0            0            0            0 
10188000      702.025    80724.241    617.19243   -267.31012    940.10376    672.79365    1499.2738   -267.31012            0   -6.4873889            0            0            0            0            0            0 
10189000    628.08549    85083.489    612.02786   -259.07075    932.23712    673.16637    1452.5296   -259.07075            0   -6.1550079            0            0            0            0            0            0 
10190000    727.26767    78703.914    583.69613   -268.75389    889.08241    620.32852    1455.0979   -268.75389            0     -6.65392            0            0            0            0            0            0 
10191000    700.08485    81607.415    638.44004    -260.8971    972.46799    711.57089    1544.7842    -260.8971            0   -6.4171809            0            0            0            0            0            0 
10192000    753.21603    79854.604    619.98835    -262.1302     944.3625     682.2323    1559.4258    -262.1302            0   -6.5580382            0            0            0            0            0            0 
10193000     722.3496    77363.047    614.54162   -283.39247    936.06607    652.67361    1467.6723   -283.39247            0   -6.7692466            0            0            0            0            0            0 
10194000    678.63753    84427.998    604.82129   -251.28172    921.26013     669.9784    1505.5819   -251.28172            0   -6.2027948            0            0            0            0            0            0 
10195000    712.19894    78419.935    613.00381   -277.13765    933.72369    656.58604    1471.1097   -277.13765            0   -6.6780156            0            0            0            0            0            0 
10196000    689.12674    81310.521    592.39878   -253.03962    902.33823    649.29861    1466.4861   -253.03962            0   -6.4406124            0            0            0            0            0            0 
10197000    661.64573    78011.308    596.30247   -277.60141     908.2843     630.6829    1383.4471   -277.60141            0   -6.7129953            0            0            0            0            0            0 
10198000    671.93663    79593.974    627.19727    -277.4608    955.34307    677.88227    1457.8639    -277.4608            0   -6.5795125            0            0            0            0            0            0 
10199000    800.38681    77143.638    632.88234   -268.96122    964.00254    695.04133    1595.5252   -268.96122            0   -6.7884995            0            0            0            0            0            0 
10200000    645.09927    83006.128    596.68223   -255.89964    908.86275    652.96311     1433.894   -255.89964            0   -6.3090468            0            0            0            0            0            0 
10201000    643.24965    80561.741    566.60211   -263.93627     863.0449    599.10863    1354.8693   -263.93627            0   -6.5004745            0            0            0            0            0            0 
10202000    613.53616    81558.567    587.90713   -272.60368    895.49658     622.8929    1352.6623   -272.60368            0   -6.4210244            0            0            0            0            0            0 
10203000    743.00091    76992.553    648.28795   -282.08647    987.46828    705.38181    1539.6659   -282.08647            0   -6.8018208            0            0            0            0            0            0 
10204000    733.88305    79980.502    599.14104   -261.13149      912.608    651.47651    1507.5023   -261.13149            0   -6.5477152            0            0            0            0            0            0 
10205000    746.45442    77231.712    668.29995    -286.0652    1017.9504    731.88523    1572.6507    -286.0652            0   -6.7807579            0            0            0            0            0            0 
10206000     705.3341    81932.567    603.76336   -254.43974    919.64869    665.20896    1508.0144   -254.43974            0   -6.3917141            0            0            0            0            0            0 
10207000    614.12867    81486.673    598.06748   -273.21696    910.97276     637.7558     1367.586   -273.21696            0   -6.4266895            0            0            0            0            0            0 
10208000    827.86452    73970.166    601.16759   -271.03616    915.69483    644.65867    1537.7415   -271.03616            0     -7.07974            0            0            0            0            0            0 
10209000    666.44494     82029.98    610.95386   -259.54609    930.60121    671.05512    1468.3386   -259.54609            0   -6.3841238            0            0            0            0            0            0 
10210000    718.39093    77745.512    657.79853   -286.28313    1001.9547    715.67159    1530.2109   -286.28313            0   -6.7359457            0            0            0            0            0            0 
10211000    653.09722    84992.568    618.29214   -250.46745    941.77884    691.31139    1500.8446   -250.46745            0   -6.1615922            0            0            0            0            0            0 
10212000    720.74555    79033.093    575.60207   -260.13563    876.75358    616.61795    1447.3612   -260.13563            0   -6.6262059            0            0            0            0            0            0 
10213000    682.70316    80079.953    555.31595   -268.28865    845.85389    577.56524    1374.8833   -268.28865            0   -6.5395835            0            0            0            0            0            0 
10214000    720.35269    80376.553    606.03511   -256.07794    923.10901    667.03107    1511.4354   -256.07794            0   -6.5154517            0            0            0            0            0            0 
10215000    702.08322    80155.691    623.11545   -265.35415    949.12568    683.77152    1504.4988   -265.35415            0   -6.5334044            0            0            0            0            0            0 
10216000    760.16222    77570.702    638.44268    -277.2621    972.47201    695.20992    1555.1732    -277.2621            0   -6.7511255            0            0            0            0            0            0 
10217000     677.4061    80140.771    590.83354   -266.74579    899.95407    633.20827    1424.9408   -266.74579            0   -6.5346208            0            0            0            0            0            0 
10218000    658.77992    79419.611    551.14678   -263.62623    839.50343     575.8772    1338.9114   -263.62623            0   -6.5939576            0            0            0            0            0            0 
10219000    680.37204     78696.81    582.76478   -274.08987    887.66377     613.5739    1394.4452   -274.08987            0   -6.6545206            0            0            0            0            0            0 
10220000    604.51296    81301.211    590.64069   -282.20985    899.66031    617.45046    1334.2183   -282.20985            0   -6.4413499            0            0            0            0            0            0 
10221000     671.9345     80572.35    619.52519    -269.6345    943.65701    674.02251    1463.5893    -269.6345            0   -6.4996186            0            0            0            0            0            0 
10222000    777.11529    75245.814    636.62979   -285.70586    969.71064    684.00478    1536.7979   -285.70586            0   -6.9597167            0            0            0            0            0            0 
10223000    716.76682    80608.172    595.37051   -257.14377    906.86475    649.72098    1492.3431   -257.14377            0   -6.4967302            0            0            0            0            0            0 
10224000    774.11691    80535.056     581.6418   -246.58277    885.95327    639.37049    1548.5872   -246.58277            0   -6.5026284            0            0            0            0            0            0 
10225000    673.58513     80182.78    594.96188    -266.5751    906.24233    639.66723    1427.3466    -266.5751            0   -6.5311972            0            0            0            0            0            0 
10226000    824.64221    74928.336    602.81138   -272.81254    918.19863    645.38609    1546.5163   -272.81254            0   -6.9892056            0            0            0            0            0            0 
10227000    609.92481    81050.738    583.67688   -272.17769    889.05309     616.8754    1337.8321   -272.17769            0   -6.4612557            0            0            0            0            0            0 
10228000    642.82795    78882.396    590.71448   -278.64715    899.77271    621.12556    1360.6469   -278.64715            0   -6.6388646            0            0            0            0            0            0 
10229000    745.92383    74393.335    590.43645    -290.1247    899.34922    609.22452     1418.515    -290.1247            0   -7.0394686            0            0            0            0            0            0 
10230000    760.31383    80102.987    642.78448   -265.82324    979.08542    713.26218    1601.4759   -265.82324            0   -6.5377031            0            0            0            0            0            0 
10231000    642.18895    81448.292    597.40016   -265.02755     909.9563    644.92874    1407.7463   -265.02755            0    -6.429718            0            0            0            0            0            0 
10232000    718.41154    79549.481    553.10598   -255.01934    842.48768    587.46833    1420.9317   -255.01934            0   -6.5831925            0            0            0            0            0            0 
10233000    627.91916    80040.906    581.74334   -274.78043    886.10793    611.32751    1344.3067   -274.78043            0   -6.5427738            0            0            0            0            0            0 
10234000      728.236     78190.96    598.92055   -269.81803    912.27215    642.45412    1472.8871   -269.81803            0   -6.6975715            0            0            0            0            0            0 
10235000    737.01389    79859.742    602.39565   -257.41931     917.5654    660.14609    1518.5258   -257.41931            0   -6.5576163            0            0            0            0            0            0 
10236000    827.82474    74242.828     609.7232   -280.38352    928.72668    648.34316    1544.6749   -280.38352            0   -7.0537392            0            0            0            0            0            0 
10237000    631.15131    77902.213    602.18858   -286.90328       917.25    630.34672    1347.4128   -286.90328            0   -6.7223963            0            0            0            0            0            0 
10238000    691.50526    80559.474    650.29295   -273.12901    990.52228    717.39327    1529.8271   -273.12901            0   -6.5006574            0            0            0            0            0            0 
10239000    691.19618    80927.953    628.37848   -267.37419    957.14229     689.7681    1505.5532   -267.37419            0   -6.4710588            0            0            0            0            0            0 
10240000    712.53348    82541.121      582.732   -245.96944    887.61385    641.64441    1499.3762   -245.96944            0   -6.3445897            0            0            0            0            0            0 
10241000    644.73403    77526.306    580.13113   -288.03176    883.65222    595.62045    1324.5836   -288.03176            0   -6.7549916            0            0            0            0            0            0 
10242000    686.62899    83275.371     656.2895   -254.70328    999.65619    744.95291    1578.8541   -254.70328            0   -6.2886486            0            0            0            0            0            0 
10243000    769.01259    80804.431    622.96315   -247.71699     948.8937    701.17671    1607.4194   -247.71699            0   -6.4809508            0            0            0            0            0            0 
10244000    858.85301    74041.729    574.39079   -274.04848    874.90857     600.8601     1528.269   -274.04848            0   -7.0728973            0            0            0            0            0            0 
10245000    679.59509    80566.204    599.58835    -263.3831    913.28934    649.90624    1448.4138    -263.3831            0   -6.5001144            0            0            0            0            0            0 
10246000    700.03036    78949.315    608.23812   -268.68696    926.46461    657.77765    1463.7889   -268.68696            0   -6.6332374            0            0            0            0            0            0 
10247000    784.66463    74690.669    618.97594   -282.17867    942.82039    660.64172    1515.3665   -282.17867            0   -7.0114454            0            0            0            0            0            0 
10248000    599.99644    83129.058     581.1765   -259.80489    885.24452    625.43963    1352.8465   -259.80489            0   -6.2997171            0            0            0            0            0            0 
10249000    641.41364    80678.469    584.58553   -271.77414    890.43713    618.66299    1373.3584   -271.77414            0   -6.4910695            0            0            0            0            0            0 
10250000    719.70899    77731.544    594.83021   -274.30996    906.04177    631.73181     1447.619   -274.30996            0   -6.7371561            0            0            0            0            0            0 
10251000    621.62486    80980.676    580.75711   -282.30624     884.6057    602.29947    1336.4509   -282.30624            0   -6.4668458            0            0            0            0            0            0 
10252000    820.77279    75557.673    633.36667   -271.65386    964.74028    693.08642    1597.5215   -271.65386            0    -6.930991            0            0            0            0            0            0 
10253000    648.30385    77221.876    595.94313   -292.33538    907.73696    615.40157    1345.5226   -292.33538            0   -6.7816216            0            0            0            0            0            0 
10254000    665.86369    82271.845    577.81956   -247.73701    880.13124    632.39423    1431.3311   -247.73701            0   -6.3653555            0            0            0            0            0            0 
10255000    637.78119    78981.327    609.53756   -281.16892    928.44392      647.275    1381.9107   -281.16892            0   -6.6305488            0            0            0            0            0            0 
10256000    680.02586    79874.763    609.27871   -262.92762    928.04964    665.12201    1457.2784   -262.92762            0   -6.5563831            0            0            0            0            0            0 
10257000    789.39948    73341.634    616.47047   -292.51124    939.00409    646.49284    1490.8444   -292.51124            0   -7.1404129            0            0            0            0            0            0 
10258000      628.583    84163.551    569.99516   -254.44524    868.21317    613.76794    1385.3153   -254.44524            0   -6.2222843            0            0            0            0            0            0 
10259000    666.96505    80876.543    578.55719   -257.72939     881.2548    623.52542    1410.2116   -257.72939            0   -6.4751722            0            0            0            0            0            0 
10260000    768.72446    77572.932    620.54319   -271.29781    945.20763    673.90981    1543.5844   -271.29781            0   -6.7509314            0            0            0            0            0            0 
10261000     776.3787    79521.756    590.66848   -245.34341    899.70265    654.35924    1554.7592   -245.34341            0   -6.5854877            0            0            0            0            0            0 
10262000    816.64625    73010.516    634.93331   -287.60398    967.12657     679.5226     1549.074   -287.60398            0   -7.1727961            0            0            0            0            0            0 
10263000    652.47432    82447.832    606.74257   -264.83424    924.18661    659.35237    1443.8986   -264.83424            0   -6.3517685            0            0            0            0            0            0 
10264000    690.13247    78871.185    599.33107   -272.86226    912.89745    640.03519    1433.8637   -272.86226            0   -6.6398083            0            0            0            0            0            0 
10265000    631.48858    77005.901    573.83488   -280.72104    874.06182    593.34078    1302.5353   -280.72104            0   -6.8006418            0            0            0            0            0            0 
10266000    644.62755    78875.705    581.20199   -273.01307    885.28335    612.27028    1353.7991   -273.01307            0   -6.6394278            0            0            0            0            0            0 
10267000    670.86436    78559.813    580.98404   -286.07268    884.95137    598.87869    1367.4976   -286.07268            0   -6.6661251            0            0            0            0            0            0 
10268000    680.56995    79100.598    629.17899   -275.60749    958.36162    682.75414    1467.8604   -275.60749            0   -6.6205511            0            0            0            0            0            0 
10269000    778.05774    77616.414    612.32371   -266.33306    932.68776     666.3547    1547.0817   -266.33306            0   -6.7471494            0            0            0            0            0            0 
10270000    756.60489    78573.363    596.95787    -261.8615    909.28261    647.42112    1514.4237    -261.8615            0   -6.6649756            0            0            0            0            0            0 
10271000    788.01258    74892.468    602.39594    -277.9599    917.56584    639.60594    1500.2968    -277.9599            0    -6.992553            0            0            0            0            0            0 
10272000    642.83237    81595.158    628.05514    -268.3948    956.64978    688.25499    1453.2137    -268.3948            0   -6.4181449            0            0            0            0            0            0 
10273000      617.468      82885.5    575.20105   -263.65929    876.14275    612.48346    1358.8788   -263.65929            0   -6.3182287            0            0            0            0            0            0 
10274000     574.0941    78125.996    598.31564   -291.21489    911.35076    620.13586    1274.2515   -291.21489            0   -6.7031407            0            0            0            0            0            0 
10275000    666.46872    77701.127    577.94521   -278.85222    880.32263    601.47042    1356.7069   -278.85222            0   -6.7397934            0            0            0            0            0            0 
10276000    753.19655    78658.146    608.99036   -270.20766    927.61043    657.40276     1521.431   -270.20766            0   -6.6577916            0            0            0            0            0            0 
10277000    696.35192    77806.199    608.32576   -290.04152    926.59811    636.55659    1426.7235   -290.04152            0   -6.7306918            0            0            0            0            0            0 
10278000      649.887    79877.019    617.94627    -274.8628    941.25201    666.38922    1423.4584    -274.8628            0   -6.5561979            0            0            0            0            0            0 
10279000    700.42935     79959.02    613.89016    -269.0853    935.07377    665.98847    1482.7733    -269.0853            0   -6.5494743            0            0            0            0            0            0 
10280000    746.49584    76775.494    603.09059   -276.47099    918.62393    642.15294    1477.9982   -276.47099            0   -6.8210508            0            0            0            0            0            0 
10281000    650.49241    82635.459    584.93796   -257.81257    890.97395    633.16139    1417.1045   -257.81257            0   -6.3373466            0            0            0            0            0            0 
10282000    645.37024    81332.937     591.9673   -269.22368      901.681    632.45732     1397.968   -269.22368            0   -6.4388373            0            0            0            0            0            0 
10283000    731.19929    76445.613    630.93476   -283.74701    961.03599    677.28898    1492.4891   -283.74701            0   -6.8504853            0            0            0            0            0            0 
10284000     601.9388    85067.733    587.34173   -257.27758    894.63537    637.35779    1384.1385   -257.27758            0   -6.1561479            0            0            0            0            0            0 
10285000    707.39677    81120.766    627.13394   -259.60738    955.24661    695.63923    1532.5343   -259.60738            0    -6.455678            0            0            0            0            0            0 
10286000    789.83498    75925.663       605.77   -270.70734    922.70519    651.99785    1526.5805   -270.70734            0   -6.8973984            0            0            0            0            0            0 
10287000    716.92852     77099.42    617.25469   -279.19707     940.1986    661.00153    1467.1274   -279.19707            0   -6.7923928            0            0            0            0            0            0 
10288000    552.27496    82750.766    572.91954   -273.82944    872.66756    598.83812    1265.3429   -273.82944            0    -6.328516            0            0            0            0            0            0 
10289000    648.85522     77565.51    586.79195   -286.52029    893.79794    607.27765    1341.2714   -286.52029            0   -6.7515775            0            0            0            0            0            0 
10290000    659.48342    79843.824    581.16941   -266.01833    885.23373    619.21539    1387.1444   -266.01833            0   -6.5589236            0            0            0            0            0            0 
10291000    757.56911    72770.165    633.06558   -296.75271    964.28166    667.52895    1471.5205   -296.75271            0    -7.196487            0            0            0            0            0            0 
10292000    592.54698    81322.932    605.89497   -268.82936    922.89555    654.06618    1356.8337   -268.82936            0   -6.4396294            0            0            0            0            0            0 
10293000    771.80805     78501.43    620.43836   -264.38904    945.04794     680.6589    1564.2733   -264.38904            0   -6.6710829            0            0            0            0            0            0 
10294000     667.4983     81428.21    612.91481   -266.77657    933.58813    666.81156    1459.4971   -266.77657            0   -6.4313036            0            0            0            0            0            0 
10295000    753.75283    79239.579    592.48951    -251.3444    902.47643    651.13203    1522.1899    -251.3444            0    -6.608939            0            0            0            0            0            0 
10296000    643.05577    76522.297    595.29736   -293.74415    906.75332    613.00917    1330.6589   -293.74415            0   -6.8436203            0            0            0            0            0            0 
10297000    586.41173    83965.593    614.10683   -261.80809     935.4038    673.59572    1391.6874   -261.80809            0   -6.2369541            0            0            0            0            0            0 
10298000    698.97671    79199.557    592.08881   -263.71023    901.86609    638.15586    1445.5049   -263.71023            0   -6.6122787            0            0            0            0            0            0 
10299000    715.06837    80334.604    587.53424   -259.09777     894.9286    635.83082    1473.6034   -259.09777            0   -6.5188539            0            0            0            0            0            0 
10300000    794.62563    78406.591    612.15529   -260.82569    932.43123    671.60553    1580.2438   -260.82569            0   -6.6791521            0            0            0            0            0            0 
10301000    646.39166    80808.386    618.64894   -275.84268    942.32231    666.47963     1428.257   -275.84268            0   -6.4806337            0            0            0            0            0            0 
10302000    608.96301    84425.001    597.37984   -267.58819    909.92535    642.33716    1392.1241   -267.58819            0   -6.2030149            0            0            0            0            0            0 
10303000     793.1578    75811.893     610.8227   -275.10196    930.40143    655.29946    1532.2454   -275.10196            0   -6.9077492            0            0            0            0            0            0 
10304000    660.63401    82031.231    611.34185   -266.93623     931.1922    664.25596    1454.5998   -266.93623            0   -6.3840264            0            0            0            0            0            0 
10305000    727.49628    77678.383    581.71448   -272.77526    886.06397     613.2887    1437.4398   -272.77526            0   -6.7417669            0            0            0            0            0            0 
10306000    677.80558    78997.291    594.08982   -272.22616      904.914    632.68785    1413.5839   -272.22616            0   -6.6292089            0            0            0            0            0            0 
10307000    703.63226    80963.836    556.73882   -250.20573     848.0212    597.81547    1428.6465   -250.20573            0   -6.4681909            0            0            0            0            0            0 
10308000    747.27329    74186.657    628.60777   -297.59515    957.49154    659.89639    1468.3985   -297.59515            0     -7.05908            0            0            0            0            0            0 
10309000    599.39788    82470.477    588.78277   -272.29558    896.83035    624.53476     1345.459   -272.29558            0   -6.3500245            0            0            0            0            0            0 
10310000    596.73966    83247.769    601.59482   -271.10034    916.34558    645.24524    1369.7369   -271.10034            0   -6.2907337            0            0            0            0            0            0 
10311000    803.06048    75037.216    610.37591   -273.72895    929.72088    655.99193    1534.8138   -273.72895            0   -6.9790641            0            0            0            0            0            0 
10312000    678.99556     79171.41    592.86757   -272.19498    903.05229    630.85731    1414.8485   -272.19498            0   -6.6146295            0            0            0            0            0            0 
10313000    593.98534    80210.959    576.27538   -278.56034    877.77916    599.21882    1294.0596   -278.56034            0   -6.5289027            0            0            0            0            0            0 
10314000    752.09554    75572.719    601.04118   -289.51213    915.50227    625.99014    1454.9127   -289.51213            0    -6.929611            0            0            0            0            0            0 
10315000    751.92047    83070.784    606.05735    -241.1343    923.14288    682.00857    1592.9619    -241.1343            0   -6.3041363            0            0            0            0            0            0 
10316000    635.84058    84403.452    576.34354   -257.97801    877.88299    619.90498    1402.5852   -257.97801            0   -6.2045987            0            0            0            0            0            0 
10317000    755.92838    77927.047    628.64099   -279.36858    957.54215    678.17357    1537.2756   -279.36858            0   -6.7202539            0            0            0            0            0            0 
10318000    642.94432     81231.01    574.32892   -265.93133    874.81434    608.88301    1370.5605   -265.93133            0   -6.4469166            0            0            0            0            0            0 
10319000    736.71621     77140.97    582.54996   -272.79831    887.33656    614.53825    1443.3601   -272.79831            0   -6.7887343            0            0            0            0            0            0 
10320000    707.97297    79467.855    627.91152   -270.86401    956.43101    685.56701    1506.0773   -270.86401            0   -6.5899544            0            0            0            0            0            0 
10321000    876.51167     79280.47    595.75696     -239.628    907.45339    667.82539    1681.2695     -239.628            0   -6.6055303            0            0            0            0            0            0 
10322000     632.0219    80128.905    597.86769   -275.86873    910.66844    634.79971    1373.3792   -275.86873            0   -6.5355884            0            0            0            0            0            0 
10323000    589.95251    83525.227    566.76875   -270.24482    863.29872     593.0539    1311.6926   -270.24482            0   -6.2698368            0            0            0            0            0            0 
10324000     672.0646    80734.459    595.08813   -269.86944    906.43463    636.56519    1427.8737   -269.86944            0   -6.4865678            0            0            0            0            0            0 
10325000    781.44346    77705.397    644.65607   -260.45354    981.93622    721.48268    1607.0562   -260.45354            0   -6.7394231            0            0            0            0            0            0 
10326000    713.92195    81633.052    598.84871   -257.58755    912.16272    654.57517    1504.5238   -257.58755            0   -6.4151656            0            0            0            0            0            0 
10327000      792.246    80221.822    625.54449   -254.66733    952.82558    698.15825    1625.0488   -254.66733            0   -6.5280186            0            0            0            0            0            0 
10328000    643.85679    79920.021    608.67584   -275.47281    927.13135    651.65854    1402.1068   -275.47281            0   -6.5526703            0            0            0            0            0            0 
10329000    753.81057    84038.859    607.33125   -238.54371    925.08327    686.53956    1610.4253   -238.54371            0   -6.2315166            0            0            0            0            0            0 
10330000     676.1728    79126.242    569.95679   -276.62134    868.15473    591.53339    1371.8199   -276.62134            0   -6.6184054            0            0            0            0            0            0 
10331000    659.84901    77084.492    579.73193   -282.84246    883.04415    600.20169    1342.0028   -282.84246            0   -6.7937082            0            0            0            0            0            0 
10332000    697.37357    80575.905    590.32391   -258.88328    899.17779    640.29451      1459.79   -258.88328            0   -6.4993319            0            0            0            0            0            0 
10333000    622.92927    80760.985    584.75679   -269.09754      890.698    621.60046    1355.2966   -269.09754            0   -6.4844373            0            0            0            0            0            0 
10334000     865.9464    75291.146    607.53467   -261.17798    925.39313    664.21514    1615.0625   -261.17798            0   -6.9555263            0            0            0            0            0            0 
10335000    692.49225    81905.965    617.47433    -261.7598    940.53316    678.77336    1505.9654    -261.7598            0   -6.3937901            0            0            0            0            0            0 
10336000    710.52804    79468.156    572.01558   -261.25394    871.29066    610.03672    1433.5114   -261.25394            0   -6.5899295            0            0            0            0            0            0 
10337000    642.26973    81595.549    621.96165   -267.39434    947.36821    679.97387    1444.2668   -267.39434            0   -6.4181141            0            0            0            0            0            0 
10338000    738.00381    77092.007    639.52407    -281.1885    974.11918    692.93068    1522.6742    -281.1885            0   -6.7930459            0            0            0            0            0            0 
10339000    633.38304    80101.148    616.15765   -273.24325    938.52759    665.28435     1405.198   -273.24325            0   -6.5378532            0            0            0            0            0            0 
10340000     675.8617    78534.352    584.44429   -273.32955      890.222    616.89245    1390.9859   -273.32955            0   -6.6682864            0            0            0            0            0            0 
10341000    622.74047    78386.685    555.11307   -278.31622    845.54486    567.22863    1279.1389   -278.31622            0   -6.6808482            0            0            0            0            0            0 
10342000    659.11089    81679.053    604.68419   -271.84208     921.0513    649.20922    1434.3455   -271.84208            0   -6.4115526            0            0            0            0            0            0 
10343000    721.29988    76005.835    604.73857   -282.57088    921.13412    638.56323    1438.1004   -282.57088            0   -6.8901229            0            0            0            0            0            0 
10344000    718.26491    76973.882    622.81067   -279.77772    948.66143    668.88371    1475.1972   -279.77772            0   -6.8034706            0            0            0            0            0            0 
10345000    652.37534    83516.321     562.5119   -240.08857    856.81471    616.72614    1411.3192   -240.08857            0   -6.2705054            0            0            0            0            0            0 
10346000    869.61711    74615.485    588.33621   -264.87574    896.15015     631.2744    1577.5833   -264.87574            0   -7.0185103            0            0            0            0            0            0 
10347000    627.07125    82107.059    628.85771     -272.768    957.87225    685.10425     1435.989     -272.768            0   -6.3781306            0            0            0            0            0            0 
10348000    635.32496    78877.914    582.83693   -284.46319    887.77367    603.31048    1334.1588   -284.46319            0   -6.6392418            0            0            0            0            0            0 
10349000    633.27277    78458.762    575.11114   -280.62078     876.0058    595.38502    1320.0014   -280.62078            0   -6.6747108            0            0            0            0            0            0 
10350000    624.75259    80225.255    602.66323   -273.37674    917.97297    644.59623    1375.5587   -273.37674            0   -6.5277392            0            0            0            0            0            0 
10351000    669.96181    80909.576    623.68564   -265.65127    949.99418    684.34291    1474.8866   -265.65127            0   -6.4725286            0            0            0            0            0            0 
10352000    711.22718    80668.945    593.89767    -264.0541    904.62132    640.56722    1477.3074    -264.0541            0   -6.4918358            0            0            0            0            0            0 
10353000    720.71693    78314.699    624.50301   -276.03603    951.23919    675.20316    1498.3625   -276.03603            0   -6.6869892            0            0            0            0            0            0 
[...]
14939000    768.80493    79180.704    635.28734   -257.12838    967.66582    710.53744    1598.3298   -257.12838            0   -6.6138531            0            0            0            0            0            0 
14940000    594.89679    81574.186    579.86172   -272.09883    883.24185    611.14303    1318.8774   -272.09883            0   -6.4197949            0            0            0            0            0            0 
14941000    845.87621    78156.476     624.0406   -263.15204    950.53485    687.38281    1651.5396   -263.15204            0   -6.7005266            0            0            0            0            0            0 
14942000    688.69637    83662.527    622.00808   -247.77042    947.43893    699.66851    1539.9691   -247.77042            0   -6.2595473            0            0            0            0            0            0 
14943000    724.09502     74979.16    561.25566   -287.80832    854.90122    567.09289    1358.8865   -287.80832            0    -6.984468            0            0            0            0            0            0 
14944000    614.09622    78906.964    595.92004   -279.30984    907.70179    628.39195    1335.0798   -279.30984            0   -6.6367976            0            0            0            0            0            0 
14945000    592.96524     77882.76    552.10024   -292.44105    840.95573    548.51468    1222.0284   -292.44105            0   -6.7240753            0            0            0            0            0            0 
14946000    662.28696    82264.301    599.63567   -261.92084    913.36142    651.44058     1446.013   -261.92084            0   -6.3659393            0            0            0            0            0            0 
14947000    712.26028    75102.306    599.78642    -286.6863    913.59104    626.90475    1407.0364    -286.6863            0   -6.9730155            0            0            0            0            0            0 
14948000    740.86649    81337.478    632.22273   -257.09569    962.99783    705.90214    1584.7355   -257.09569            0   -6.4384778            0            0            0            0            0            0 
14949000    659.96928    81728.151    630.62863   -260.26822    960.56971    700.30149    1486.9329   -260.26822            0   -6.4077009            0            0            0            0            0            0 
14950000    661.46144    77016.704    593.27598   -284.60374    903.67437    619.07062    1362.0305   -284.60374            0   -6.7996879            0            0            0            0            0            0 
14951000    634.52248    82938.882    554.26735   -256.16976    844.25666    588.08691    1355.5917   -256.16976            0   -6.3141621            0            0            0            0            0            0 
14952000    723.28533    79263.135    617.87009   -265.40701    941.13598    675.72897    1511.8262   -265.40701            0   -6.6069749            0            0            0            0            0            0 
14953000    695.20427    78394.672    589.35683   -270.42172    897.70476    627.28303    1422.1142   -270.42172            0   -6.6801676            0            0            0            0            0            0 
14954000    605.36931    81444.434    582.12043   -277.26252     886.6823    609.41978    1328.4675   -277.26252            0   -6.4300226            0            0            0            0            0            0 
14955000    685.66516    76243.592    613.15135   -289.05508    933.94842    644.89333    1407.3081   -289.05508            0   -6.8686369            0            0            0            0            0            0 
14956000    667.97108    83672.878    621.60993   -256.23251    946.83247    690.59996    1505.7138   -256.23251            0    -6.258773            0            0            0            0            0            0 
14957000     770.4538    80055.735    610.00575   -249.78509    929.15706    679.37197    1578.9005   -249.78509            0   -6.5415619            0            0            0            0            0            0 
14958000    659.74333    77312.868    590.29079   -279.20604    899.12735    619.92131     1363.801   -279.20604            0   -6.7736401            0            0            0            0            0            0 
14959000     632.4834    80768.273    628.16033   -267.71105    956.81001    689.09896    1434.1153   -267.71105            0   -6.4838522            0            0            0            0            0            0 
14960000    663.66114    80034.545     609.1078   -269.51239     927.7893    658.27691    1432.9166   -269.51239            0   -6.5432939            0            0            0            0            0            0 
14961000    621.17791    78329.967    604.99021   -283.05287    921.51743    638.46456    1348.0747   -283.05287            0   -6.6856857            0            0            0            0            0            0 
14962000    564.01464    81681.458    576.64638    -277.1673    878.34426    601.17696    1273.0539    -277.1673            0   -6.4113638            0            0            0            0            0            0 
14963000    738.96838    78719.372    587.61485   -263.95712    895.05137    631.09425    1479.4605   -263.95712            0   -6.6526134            0            0            0            0            0            0 
14964000    620.36639    79818.132    560.95332   -279.34313     854.4407    575.09757    1297.2447   -279.34313            0   -6.5610348            0            0            0            0            0            0 
14965000    657.91018    83172.887    605.54427   -253.76048    922.36135    668.60088    1466.6402   -253.76048            0   -6.2963974            0            0            0            0            0            0 
14966000    726.05713    75876.213    579.63442   -286.10156    882.89563    596.79407     1400.232   -286.10156            0   -6.9018936            0            0            0            0            0            0 
14967000     641.9133    77790.488    591.11151     -283.785    900.37747    616.59247    1344.8396     -283.785            0   -6.7320511            0            0            0            0            0            0 
14968000    692.42045    79428.435    581.27202   -265.32063    885.39001    620.06938    1422.1569   -265.32063            0    -6.593225            0            0            0            0            0            0 
14969000    756.79432    79618.732    642.82756   -277.70828    979.15105    701.44277    1580.2002   -277.70828            0   -6.5774666            0            0            0            0            0            0 
14970000    742.48691    82909.218    598.77668   -239.18456    912.05301    672.86845    1570.6434   -239.18456            0   -6.3164213            0            0            0            0            0            0 
14971000    768.33539     75806.45    587.19276   -277.56142    894.40845    616.84703    1466.2874   -277.56142            0   -6.9082452            0            0            0            0            0            0 
14972000    666.93619    79982.107    609.77153   -276.20843     928.8003    652.59187    1430.5443   -276.20843            0   -6.5475838            0            0            0            0            0            0 
14973000    754.37718    79680.105    629.38662   -260.02176    958.67788    698.65612    1575.2821   -260.02176            0   -6.5724003            0            0            0            0            0            0 
14974000    736.10308    80099.294    635.18184   -257.44077    967.50513    710.06436     1569.955   -257.44077            0   -6.5380045            0            0            0            0            0            0 
14975000     684.4635    77922.735    580.85369   -270.66792    884.75282     614.0849    1391.9251   -270.66792            0   -6.7206258            0            0            0            0            0            0 
14976000    684.07992    86206.507    615.28709   -242.04047    937.20156    695.16109    1555.2093   -242.04047            0   -6.0748262            0            0            0            0            0            0 
14977000    786.63736    78141.293    633.22451   -268.73688    964.52373    695.78685    1592.2471   -268.73688            0   -6.7018285            0            0            0            0            0            0 
14978000    670.05564    79238.057    627.00949   -282.61397    955.05705    672.44308    1446.7633   -282.61397            0    -6.609066            0            0            0            0            0            0 
14979000    672.84498    79895.563    579.59685   -263.10536     882.8384    619.73305    1403.7285   -263.10536            0   -6.5546762            0            0            0            0            0            0 
14980000    833.50314    75795.408    589.62922   -261.16531    898.11965    636.95435    1558.3073   -261.16531            0   -6.9092516            0            0            0            0            0            0 
14981000    705.78723    80447.748    621.84493   -268.04075    947.19042    679.14967    1507.2131   -268.04075            0   -6.5096855            0            0            0            0            0            0 
14982000    558.40993    85084.466    605.45413   -265.44708    922.22406    656.77698    1349.6909   -265.44708            0   -6.1549372            0            0            0            0            0            0 
14983000    837.80336    74808.182    613.47791   -277.71521    934.44583    656.73062    1570.7746   -277.71521            0   -7.0004314            0            0            0            0            0            0 
14984000    677.84048    80590.292    605.43685   -261.11123    922.19774    661.08651    1457.7706   -261.11123            0   -6.4981716            0            0            0            0            0            0 
14985000    789.20752     78659.73    636.68619   -252.59259    969.79654    717.20395    1622.5603   -252.59259            0   -6.6576575            0            0            0            0            0            0 
14986000    691.61624    80263.562    598.96486   -262.27284    912.33964     650.0668    1459.6463   -262.27284            0   -6.5246238            0            0            0            0            0            0 
14987000    760.16051    77058.592    588.67105   -271.29972    896.66017    625.36044    1479.6444   -271.29972            0   -6.7959917            0            0            0            0            0            0 
14988000    555.76575    89003.773    576.64468   -241.49185    878.34168    636.84983    1358.2498   -241.49185            0   -5.8839027            0            0            0            0            0            0 
14989000    690.88831     78641.77    602.76115   -271.94426    918.12212    646.17786    1438.5643   -271.94426            0    -6.659178            0            0            0            0            0            0 
14990000    766.99516    76981.159    560.56856   -269.41919    853.85463    584.43543    1445.5342   -269.41919            0   -6.8028275            0            0            0            0            0            0 
14991000    718.64269    81858.568    648.00557   -265.01612    987.03816    722.02204    1579.9544   -265.01612            0   -6.3974922            0            0            0            0            0            0 
14992000    647.50352    80872.361    642.27344   -276.83016    978.30701    701.47685    1465.1687   -276.83016            0   -6.4755071            0            0            0            0            0            0 
14993000     724.2383    75857.343    583.58529   -282.84116    888.91358    606.07242    1407.2984   -282.84116            0   -6.9036104            0            0            0            0            0            0 
14994000    629.21211    83654.477    599.02809   -266.08667    912.43595    646.34928    1413.9973   -266.08667            0   -6.2601496            0            0            0            0            0            0 
14995000    696.23617    80921.403    596.15391   -253.07855    908.05802    654.97946    1476.6465   -253.07855            0   -6.4715826            0            0            0            0            0            0 
14996000    561.13199    78420.333    535.52832   -280.45197    815.71349    535.26152     1177.017   -280.45197            0   -6.6779817            0            0            0            0            0            0 
14997000    606.77566    80054.001    591.02282   -269.18858    900.24238     631.0538    1339.4677   -269.18858            0   -6.5417035            0            0            0            0            0            0 
14998000    718.65265    81755.596       613.86   -254.55394    935.02784    680.47389    1537.3389   -254.55394            0   -6.4055498            0            0            0            0            0            0 
14999000     611.4733    78351.243    589.40383   -294.43363    897.77633     603.3427    1302.0564   -294.43363            0   -6.6838703            0            0            0            0            0            0 
15000000    639.43064    82646.038    617.34919   -254.46092    940.34255    685.88163    1456.5923   -254.46092            0   -6.3365354            0            0            0            0            0            0 
Loop time of 1212.47 on 8 procs for 5000000 steps with 512 atoms

Pair  time (%) = 595.643 (49.1266)
Bond  time (%) = 0.443113 (0.0365464)
Neigh time (%) = 29.3996 (2.42478)
Comm  time (%) = 426.082 (35.1417)
Outpt time (%) = 0.267067 (0.0220267)
Other time (%) = 160.631 (13.2483)

Nlocal:    64 ave 79 max 55 min
Histogram: 2 0 2 0 0 3 0 0 0 1
Nghost:    1007.5 ave 1048 max 955 min
Histogram: 1 1 0 0 1 0 1 3 0 1
Neighs:    4000.88 ave 5191 max 3081 min
Histogram: 1 1 1 1 1 1 1 0 0 1

Total # of neighbors = 32007
Ave neighs/atom = 62.5137
Ave special neighs/atom = 0
Neighbor list builds = 113250
Dangerous builds = 0

Averages
Group Pressure(MPa) Volume(m3) Temperature(K) PE(J) KE(J) ET(J) ET^2(J) H(J) H^2(J^2) V^2(m6) V*H(m3*J) Hconf(J) Uext*Hconf(J^2) V*Hconf(m3*J) Uext(J)
Block1 70.008070860981703731 7.9595969482047025208e-26 600.09493169488496278 -1.8661912179421374248e-18 6.3506166253013368772e-18 4.4844254073591948302e-18 2.0172210570199310504e-35 1.0048811861925811674e-17 1.0134078276209245738e-34 6.3422656509869735346e-51 7.9985269100203986904e-43 3.6981952366244871224e-18 -6.8706170564255529362e-36 2.9436896391939128484e-43 -1.8661912179421374248e-18
Block2 69.870361786275609006 7.9673067332679060491e-26 600.35514066472762806 -1.8653483888224301032e-18 6.3533703352939590363e-18 4.4880219464715293182e-18 2.020410535475452722e-35 1.0046411030930396355e-17 1.0130211235790318116e-34 6.3544390886599618732e-51 8.0036285922995974483e-43 3.6930406956364558081e-18 -6.8589499799431408357e-36 2.9418509629645791176e-43 -1.8653483888224301032e-18
Block3 70.113022770780787596 7.9580149892909133397e-26 600.33716908368012355 -1.8648333197881779544e-18 6.353180147683036756e-18 4.4883468278948630387e-18 2.0211963686101515753e-35 1.0059943473486452243e-17 1.0159848142342077121e-34 6.3394720365170615281e-51 8.0058725822259726486e-43 3.7067633258034239615e-18 -6.8804753320405236845e-36 2.9495125551037421146e-43 -1.8648333197881779544e-18
Block4 69.76365431194429334 7.9623835334614498399e-26 599.60862774003521736 -1.8675828912869586686e-18 6.3454702229281258111e-18 4.477887331641180624e-18 2.011308882205795987e-35 1.0024857413463671665e-17 1.0085134329856189117e-34 6.3459581342706209653e-51 7.9817234499103973945e-43 3.6793871905355296761e-18 -6.8441839099176034717e-36 2.9289340954659053374e-43 -1.8675828912869586686e-18
Block5 70.517380976560005479 7.9621855690298011395e-26 600.4278939893910092 -1.858460740514956098e-18 6.3541402609319681222e-18 4.4956795204170097132e-18 2.0276666955534200452e-35 1.0101601940953392266e-17 1.0243457668368141017e-34 6.346307100540196243e-51 8.0423903735733992126e-43 3.7474616800214233738e-18 -6.9337796800798208161e-36 2.982977656929253182e-43 -1.858460740514956098e-18
Ave_blocks 70.054498141308471304 7.961897554650953889e-26 600.16475263454378819 -1.8644833116709323579e-18 6.3513555184276853206e-18 4.4868722067567548886e-18 2.0195607077729504364e-35 1.0056325144151945457e-17 1.0150545930513193366e-34 6.3456884021949623541e-51 8.0064283816059527603e-43 3.704969625724263218e-18 -6.8776011916813283489e-36 2.9493929819314783607e-43 -1.8644833116709323579e-18
Stdev_blocks 0.26012976535103338183 3.1605520021757733446e-29 0.29978934887947794596 3.1517158855545941722e-21 3.1725767416585844308e-21 5.7927539384503826117e-21 5.3417454494250185754e-38 2.5329973396043737268e-20 5.231153433879413473e-37 5.0475436544309817165e-54 1.9870478115419494915e-45 2.3028003601126618201e-20 3.0586414652893711087e-38 1.8088233171540565945e-45 3.1517158855545941722e-21






Properties
Group rho(kg/m3) Cp(J/K) Cp_conf(J/K) Cp_id(J/K) Cp2(J/K) kT(1/Pa) aP(1/K) aP2(1/K) Cv(J/K) uJT(K/Pa) sos(m/s) Cv2(J/K) uJT2(K/Pa) sos2(m/s) CvNVT(J/K)
Block1 171.35583935888365659 7.2841830762719964247e-20 -7.4348620140730550836e-22 4.4632906930225786357e-20 4.3889420728818478592e-20 1.0231406203330807719e-08 1.9630649094534771004e-05 1.9024239261487737576e-05 7.2840031705285472062e-20 -1.0798507944947939187e-06 755.24567215407148524 4.3887731103895499305e-20 -1.7928528735215701287e-06 755.2508832224436901 1.2498084915671049171e-20
Block2 171.19002213419148006 7.4702818045480190451e-20 -1.7819272256533380011e-21 4.464590973815074124e-20 4.2863982512497404744e-20 1.0056772804017173556e-08 -0.00016526636133433033542 -0.00012808940095013289008 7.4572911790493580333e-20 -1.1723535017895666125e-06 762.7977416425883348 4.2785947856311436166e-20 -2.0016772099017555654e-06 762.82889857545023915 1.2411900280471371247e-20
Block3 171.38990286565871202 7.9586983614681778715e-20 -1.1062402071923323449e-21 4.4645011741314694202e-20 4.3538771534122363362e-20 9.8116152392713957108e-09 3.9013343691401795865e-05 -8.4663806693579732581e-05 7.9579572460915178375e-20 -9.7649498592859418175e-07 771.18282859764894965 4.3503869152743448327e-20 -1.9207008764608578034e-06 771.45619814057886288 1.3405841154895687017e-20
Block4 171.2958701733240332 7.1230371629110341357e-20 -2.5868569276770753963e-21 4.4608601472679594471e-20 4.2021744545002522084e-20 9.106946261961979931e-09 -0.00011448949959613957184 -0.00018598837946571465099 7.116165378804371059e-20 -1.1945736269600908884e-06 801.03179673586816989 4.1840397779857105443e-20 -2.1061358893885408965e-06 802.37853777723182702 1.2412506867432905923e-20
Block5 171.30012911570722167 7.8798719431767768594e-20 -2.0578713402412842807e-21 4.4649544964723520918e-20 4.259167362448223438e-20 1.0101059075253450598e-08 -0.00017474773441972989109 -0.00020712821296506138402 7.8654192310662891196e-20 -1.1164655119430387977e-06 760.9153431819428306 4.2388622798452228758e-20 -2.1019148692706598357e-06 762.03584248777906396 1.3165958864200661005e-20
Ave_blocks 171.30635272955302639 7.5432144696752006265e-20 -1.6552763804342670686e-21 4.4636394969418862623e-20 4.2981118588984600632e-20 9.8615599167669621647e-09 -7.9171920512852646972e-05 -0.00011736911216260019215 7.5361672411080161696e-20 -1.1079476842232170916e-06 770.23467646242397677 4.2881313738251942396e-20 -1.9846563437086768459e-06 770.79007204069671388 1.2778858416534333669e-20
Stdev_blocks 0.067986728848141095294 3.2708730465563793873e-21 6.6011627829589169178e-22 1.4982301804773583233e-23 6.6659978720446835093e-22 4.0104623992194095744e-10 9.1130702589940819564e-05 8.0688298943883371189e-05 3.263505468636704237e-21 7.7193217036025808231e-08 16.224609900219455483 7.3970212978220710143e-22 1.1804696073022996124e-07 16.611791587348054833 4.2205677360407723103e-22






