LAMMPS (28 Oct 2012)
Scanning data file ...
Reading data file ...
  orthogonal box = (0 0 0) to (100 100 100)
  2 by 2 by 2 MPI processor grid
  512 atoms
Finding 1-2 1-3 1-4 neighbors ...
  0 = max # of 1-2 neighbors
  0 = max # of 1-3 neighbors
  0 = max # of 1-4 neighbors
  1 = max # of special neighbors
WARNING: Resetting reneighboring criteria during minimization (min.cpp:173)
Setting up minimization ...
Memory usage per processor = 4.05499 Mbytes
Step Temp E_pair E_mol TotEng Press 
       0       420.15    1409.7233            0    2049.6933    441.77095 
     701       420.15   -217.27527            0    422.69467    29.026049 
Loop time of 0.0554095 on 8 procs for 701 steps with 512 atoms

Minimization stats:
  Stopping criterion = energy tolerance
  Energy initial, next-to-last, final = 
         1409.72334813     -217.256630745     -217.275265106
  Force two-norm initial, final = 5034.49 0.337455
  Force max component initial, final = 2457.89 0.147661
  Final line search alpha, max atom move = 0.254892 0.0376377
  Iterations, force evaluations = 701 710

Pair  time (%) = 0.00898775 (16.2206)
Bond  time (%) = 6.24657e-05 (0.112735)
Neigh time (%) = 0.00314611 (5.67793)
Comm  time (%) = 0.0223801 (40.3903)
Outpt time (%) = 0 (0)
Other time (%) = 0.0208331 (37.5984)

Nlocal:    64 ave 74 max 52 min
Histogram: 1 0 0 1 1 2 0 2 0 1
Nghost:    235.125 ave 266 max 224 min
Histogram: 4 0 2 0 0 1 0 0 0 1
Neighs:    316.25 ave 371 max 226 min
Histogram: 1 0 0 1 1 1 0 1 0 3

Total # of neighbors = 2530
Ave neighs/atom = 4.94141
Ave special neighs/atom = 0
Neighbor list builds = 60
Dangerous builds = 0
Setting up run ...
Memory usage per processor = 3.36354 Mbytes
Step Temp E_pair E_mol TotEng Press Volume 
     701       420.15   -217.27527            0    422.69467    29.026049      1000000 
 5000701    435.74906   -406.19994            0    257.53039    650.44432    58710.624 
Loop time of 1451.14 on 8 procs for 5000000 steps with 512 atoms

Pair  time (%) = 803.636 (55.3795)
Bond  time (%) = 0.4538 (0.0312719)
Neigh time (%) = 34.9277 (2.40691)
Comm  time (%) = 449.047 (30.9444)
Outpt time (%) = 4.29749e-05 (2.96146e-06)
Other time (%) = 163.079 (11.2379)

Nlocal:    64 ave 68 max 60 min
Histogram: 1 1 1 1 0 0 1 1 1 1
Nghost:    1254.25 ave 1268 max 1233 min
Histogram: 1 0 1 0 0 0 2 2 1 1
Neighs:    5628.75 ave 6290 max 5278 min
Histogram: 2 1 0 3 1 0 0 0 0 1

Total # of neighbors = 45030
Ave neighs/atom = 87.9492
Ave special neighs/atom = 0
Neighbor list builds = 94826
Dangerous builds = 13
Setting up run ...
Memory usage per processor = 3.96737 Mbytes
Step Press Volume Temp PotEng KinEng TotEng Enthalpy E_vdwl E_coul E_tail E_long E_bond E_angle E_dihed E_impro E_mol 
10000000    650.44432    58710.624    435.74906   -406.19994    663.73033    257.53039    814.46308   -406.19994            0   -8.9198429            0            0            0            0            0            0 
10001000    651.24003    57972.387    388.73144   -402.35978    592.11338     189.7536    740.35608   -402.35978            0   -9.0334308            0            0            0            0            0            0 
10002000    676.34342    58880.781    409.38874   -402.24705    623.57844    221.33139    802.11817   -402.24705            0   -8.8940659            0            0            0            0            0            0 
10003000    742.11793    57736.427    427.51158    -399.0476    651.18304    252.13544    877.01845    -399.0476            0   -9.0703491            0            0            0            0            0            0 
10004000    710.34197    58470.604    445.67289   -392.23946    678.84624    286.60678    892.33937   -392.23946            0   -8.9564587            0            0            0            0            0            0 
10005000    622.81099    56398.948    422.01285   -430.52646    642.80741    212.28095    724.55595   -430.52646            0   -9.2854488            0            0            0            0            0            0 
10006000    676.56463    60262.365    406.48871   -391.37002    619.16113    227.79111    822.39994   -391.37002            0   -8.6901592            0            0            0            0            0            0 
10007000    844.67412    55469.681    441.84662   -410.72909     673.0181      262.289    945.60367   -410.72909            0   -9.4410052            0            0            0            0            0            0 
10008000    766.50012    57084.188    437.54117   -401.76905    666.46005      264.691    902.81334   -401.76905            0    -9.173986            0            0            0            0            0            0 
10009000    754.34659    55084.532    419.50567   -424.86794    638.98849    214.12055    820.12594   -424.86794            0   -9.5070163            0            0            0            0            0            0 
10010000     551.9036    60346.488    423.83756   -404.71832    645.58681    240.86849    726.59423   -404.71832            0   -8.6780451            0            0            0            0            0            0 
10011000    705.70891     58785.82    416.43363   -390.27849    634.30918    244.03069    849.05674   -390.27849            0   -8.9084331            0            0            0            0            0            0 
10012000    608.77946    57933.427    403.63971   -412.38627    614.82156    202.43529    716.79282   -412.38627            0   -9.0395057            0            0            0            0            0            0 
10013000    452.63194    59901.751    399.65689   -414.15119    608.75495    194.60376    590.02556   -414.15119            0   -8.7424747            0            0            0            0            0            0 
10014000    797.03938    54147.412    419.34632    -427.7254    638.74577    211.02037    840.42999    -427.7254            0   -9.6715526            0            0            0            0            0            0 
10015000    675.54474    58504.482    440.05901   -412.74229    670.29522    257.55293    833.94653   -412.74229            0   -8.9512722            0            0            0            0            0            0 
10016000    658.46536    57864.473    442.95532   -418.25684    674.70685    256.45001    812.12496   -418.25684            0   -9.0502776            0            0            0            0            0            0 
10017000    674.73439    57354.825    427.58398     -412.965    651.29333    238.32833    802.71752     -412.965            0   -9.1306973            0            0            0            0            0            0 
10018000    698.15038    57731.672    422.14249   -410.40896    643.00488    232.59593    820.40868   -410.40896            0   -9.0710961            0            0            0            0            0            0 
10019000    587.24446    59969.758    408.46043   -404.67077    622.16445    217.49368    731.09617   -404.67077            0   -8.7325606            0            0            0            0            0            0 
10020000    742.13903    58314.832    412.94499   -387.39717     628.9953    241.59813    872.75919   -387.39717            0   -8.9803833            0            0            0            0            0            0 
10021000     818.8353    56663.873    419.08005    -398.5247    638.34018    239.81549    916.48826    -398.5247            0   -9.2420358            0            0            0            0            0            0 
10022000    804.74076    59374.292    424.96596   -378.51426    647.30557    268.79131    965.62691   -378.51426            0   -8.8201396            0            0            0            0            0            0 
10023000     673.8206    58520.335    422.72821    -392.7874    643.89705    251.10965    826.18794    -392.7874            0   -8.9488474            0            0            0            0            0            0 
10024000    694.53215    58630.031    427.26123    -395.9547    650.80171    254.84701    848.71287    -395.9547            0   -8.9321043            0            0            0            0            0            0 
10025000    637.92661    57720.422    433.12788   -403.17371    659.73777    256.56405    793.56631   -403.17371            0   -9.0728641            0            0            0            0            0            0 
10026000     636.5685    58512.812    402.09673   -411.15227     612.4713    201.31903    744.53434   -411.15227            0   -8.9499979            0            0            0            0            0            0 
10027000    622.48576    59880.099    424.42972   -395.08115    646.48878    251.40763    795.01812   -395.08115            0   -8.7456359            0            0            0            0            0            0 
10028000    855.60002    54254.634    438.27815   -426.96205    667.58262    240.62057    917.61254   -426.96205            0   -9.6524389            0            0            0            0            0            0 
10029000    633.75246    59102.926    415.38534   -401.06685    632.71244    231.64558    777.91203   -401.06685            0   -8.8606366            0            0            0            0            0            0 
10030000    617.34637    57108.255     426.6649   -424.70467    649.89339    225.18872    739.35511   -424.70467            0   -9.1701198            0            0            0            0            0            0 
10031000    744.80693    56622.667    428.70577   -412.00703    653.00204    240.99501     856.0443   -412.00703            0   -9.2487615            0            0            0            0            0            0 
10032000    719.42365    57122.667    403.14096   -399.24026    614.06186     214.8216    814.15582   -399.24026            0   -9.1678062            0            0            0            0            0            0 
10033000    555.91732    56771.632    402.25352   -429.26388    612.71013    183.44625    643.72134   -429.26388            0   -9.2244934            0            0            0            0            0            0 
10034000    665.76047     60433.89     441.7766   -386.31663    672.91144    286.59481    873.37365   -386.31663            0   -8.6654945            0            0            0            0            0            0 
10035000    811.33822    56363.416    425.59052   -401.60023     648.2569    246.65667     913.5788   -401.60023            0   -9.2913024            0            0            0            0            0            0 
10036000    660.15031    58336.747    427.30657    -395.5492    650.87078    255.32158    816.96532    -395.5492            0   -8.9770098            0            0            0            0            0            0 
10037000    711.84593    59251.178    452.30361   -405.75085    688.94612    283.19527     898.3139   -405.75085            0   -8.8384665            0            0            0            0            0            0 
10038000    783.00987    58853.786    433.15486   -380.11004    659.77885    279.66882    951.74349   -380.11004            0   -8.8981454            0            0            0            0            0            0 
10039000    625.84538    55846.441    410.78207   -426.29953    625.70075    199.40122    709.12917   -426.29953            0   -9.3773128            0            0            0            0            0            0 
10040000     642.4584    60845.723    417.52309   -392.61112    635.96864    243.35752    813.45741   -392.61112            0   -8.6068423            0            0            0            0            0            0 
10041000    747.16492    57499.701    398.88505   -396.58729    607.57928      210.992    837.54519   -396.58729            0   -9.1076916            0            0            0            0            0            0 
10042000     728.8508    56344.781    365.60761   -410.66082     556.8913    146.23048    745.14965   -410.66082            0   -9.2943754            0            0            0            0            0            0 
10043000    683.81338    59511.421    417.49103   -390.11115    635.91981    245.80867    839.29921   -390.11115            0   -8.7998158            0            0            0            0            0            0 
10044000    761.19037    56464.583     430.1767   -403.21844    655.24255    252.02411    878.84764   -403.21844            0   -9.2746553            0            0            0            0            0            0 
10045000     589.3125    57842.349    430.02069   -418.21586    655.00491    236.78905    733.91618   -418.21586            0   -9.0537392            0            0            0            0            0            0 
10046000    752.04183    55027.563    411.97028   -422.17715    627.51063    205.33348    808.86252   -422.17715            0   -9.5168588            0            0            0            0            0            0 
10047000    679.37111    58793.489    424.77654   -394.18957    647.01704    252.82747    835.34929   -394.18957            0   -8.9072711            0            0            0            0            0            0 
10048000    780.38978    58027.017    430.17457    -399.4491    655.23929    255.79019    916.20638    -399.4491            0   -9.0249261            0            0            0            0            0            0 
10049000     751.8881    58363.072    432.15839   -395.94002    658.26103    262.32101    902.30225   -395.94002            0   -8.9729605            0            0            0            0            0            0 
10050000    720.15073    57881.528    422.72453   -396.44712    643.89145    247.44432    855.35432   -396.44712            0   -9.0476109            0            0            0            0            0            0 
10051000     760.6303    57444.065    434.94288   -399.92698    662.50235    262.57537    899.80312   -399.92698            0   -9.1165126            0            0            0            0            0            0 
10052000    678.63456    59485.578    440.92059   -396.49045    671.60756    275.11711    863.85713   -396.49045            0   -8.8036388            0            0            0            0            0            0 
10053000    814.53127    56811.949    400.88276   -397.20995    610.62219    213.41223    888.28722   -397.20995            0   -9.2179473            0            0            0            0            0            0 
10054000     674.4174    59427.642    435.28027   -385.58821    663.01626    277.42805    861.93968   -385.58821            0   -8.8122216            0            0            0            0            0            0 
10055000    798.15726    55792.569    428.96505   -414.76292    653.39696    238.63404    888.07655   -414.76292            0   -9.3863674            0            0            0            0            0            0 
10056000    773.35003    57358.797     420.1912   -397.45463    640.03268    242.57806    889.50022   -397.45463            0    -9.130065            0            0            0            0            0            0 
10057000    726.76788    58564.485    416.30976    -385.9088    634.12049     248.2117    868.94628    -385.9088            0   -8.9421011            0            0            0            0            0            0 
10058000    784.36802    55636.004     452.7214    -423.2977    689.58249     266.2848    902.71634    -423.2977            0   -9.4127814            0            0            0            0            0            0 
10059000    611.97787    60073.553    411.25965   -391.23945    626.42821    235.18876    771.34939   -391.23945            0   -8.7174725            0            0            0            0            0            0 
10060000    482.76118    57708.093     399.5678    -423.7962    608.61925    184.82306    591.12131    -423.7962            0   -9.0748025            0            0            0            0            0            0 
10061000    701.71777     58640.92    394.04491   -388.61579    600.20682    211.59103    811.71247   -388.61579            0   -8.9304455            0            0            0            0            0            0 
10062000    772.26429    55591.001    451.13419    -419.9736    687.16485    267.19126    893.29505    -419.9736            0   -9.4204014            0            0            0            0            0            0 
10063000    584.51538    58801.696    397.18128   -408.39512    604.98412    196.58901    697.84743   -408.39512            0   -8.9060279            0            0            0            0            0            0 
10064000    651.51699    61232.482    428.57041   -375.21255    652.79585     277.5833     859.3964   -375.21255            0   -8.5524795            0            0            0            0            0            0 
10065000    734.47401    57393.201    408.05031   -404.27828    621.53975    217.26147    832.03162   -404.27828            0   -9.1245921            0            0            0            0            0            0 
10066000    606.40936    59322.949    403.79329   -400.40798    615.05549    214.64751    739.29127   -400.40798            0   -8.8277733            0            0            0            0            0            0 
10067000     595.5333    57811.736    436.41099   -420.91915    664.73858    243.81943    745.92836   -420.91915            0   -9.0585335            0            0            0            0            0            0 
10068000     674.0882    55036.117    388.12028   -431.33117    591.18245    159.85128    700.90502   -431.33117            0   -9.5153796            0            0            0            0            0            0 
10069000    656.89332     59824.97     433.8205   -391.48631    660.79276    269.30645    842.43656   -391.48631            0    -8.753695            0            0            0            0            0            0 
10070000    717.40931    57123.673      403.987   -405.78702    615.35055    209.56353    807.23018   -405.78702            0   -9.1676449            0            0            0            0            0            0 
10071000    601.42648    60188.685     406.9966    -388.7188    619.93476    231.21596    759.14224    -388.7188            0   -8.7007973            0            0            0            0            0            0 
10072000    684.09197    57230.248    426.17606   -415.54473    649.14879    233.60406    804.57763   -415.54473            0   -9.1505728            0            0            0            0            0            0 
10073000    734.44247    59291.151    427.64375   -394.04835    651.38436    257.33601    892.40888   -394.04835            0   -8.8325076            0            0            0            0            0            0 
10074000    758.87716    58389.813     423.4062   -395.50371    644.92975    249.42604    895.65209   -395.50371            0   -8.9688512            0            0            0            0            0            0 
10075000    828.77286    55816.555    448.21351   -414.92493     682.7161    267.79117    942.43482   -414.92493            0   -9.3823337            0            0            0            0            0            0 
10076000    747.78642    58418.101    442.88776    -389.2866    674.60395    285.31735    922.40751    -389.2866            0   -8.9645081            0            0            0            0            0            0 
10077000    718.63569    55648.691    393.86577   -423.29017    599.93396    176.64379    759.87348   -423.29017            0   -9.4106355            0            0            0            0            0            0 
10078000     683.2047    57993.533    416.86431   -397.35866     634.9652    237.60654    815.44481   -397.35866            0   -9.0301369            0            0            0            0            0            0 
10079000    750.80579    56544.744    426.59882   -410.97911    649.79274    238.81363    857.96344   -410.97911            0    -9.261507            0            0            0            0            0            0 
10080000    652.47425    60929.224    433.08355   -377.65402    659.67024    282.01622    861.79846   -377.65402            0   -8.5950471            0            0            0            0            0            0 
10081000    547.37977    58756.551    407.73999   -412.90944    621.06708    208.15764    677.20957   -412.90944            0   -8.9128708            0            0            0            0            0            0 
10082000    746.17991    58424.108    412.37117   -383.31018    628.12126    244.81109    880.59792   -383.31018            0   -8.9635865            0            0            0            0            0            0 
10083000    804.55489     58357.27    414.80348   -378.74144    631.82614     253.0847    937.82602   -378.74144            0   -8.9738527            0            0            0            0            0            0 
10084000    683.11071    59428.003    413.98926   -394.04155    630.58592    236.54438    828.59402   -394.04155            0    -8.812168            0            0            0            0            0            0 
10085000    648.95948    58282.063    415.01188   -399.45133    632.14358    232.69225     784.2975   -399.45133            0   -8.9854325            0            0            0            0            0            0 
10086000    707.63574    56778.966    412.96199    -414.0928     629.0212     214.9284    800.89535    -414.0928            0    -9.223302            0            0            0            0            0            0 
10087000     637.3398     59850.95    430.03701   -397.25688    655.02976    257.77288    814.08431   -397.25688            0   -8.7498953            0            0            0            0            0            0 
10088000    670.89929     58700.06    435.56999   -407.63228    663.45756    255.82528    830.16886   -407.63228            0   -8.9214482            0            0            0            0            0            0 
10089000    698.49862    58488.905    421.29631   -399.11266    641.71599    242.60333    838.42314   -399.11266            0   -8.9536561            0            0            0            0            0            0 
10090000    620.76069    56155.517    411.21697   -420.87466    626.36319    205.48853    713.87329   -420.87466            0   -9.3257008            0            0            0            0            0            0 
10091000    593.12641    59964.687    417.97431   -390.88078    636.65593    245.77515     764.4781   -390.88078            0   -8.7332991            0            0            0            0            0            0 
10092000    803.91763    58277.787    424.83904   -385.57849    647.11224    261.53375    944.80083   -385.57849            0   -8.9860919            0            0            0            0            0            0 
10093000    700.17258    57613.199    429.33152   -408.46785    653.95516    245.48731    833.79291   -408.46785            0   -9.0897494            0            0            0            0            0            0 
10094000    706.44661    58616.457    391.98925    -385.2584    597.07566    211.81725    815.73083    -385.2584            0   -8.9341727            0            0            0            0            0            0 
10095000    708.14104    61404.639    436.07506   -364.65959    664.22689    299.56731    933.72438   -364.65959            0   -8.5285013            0            0            0            0            0            0 
10096000    983.37011    57759.283    454.82983   -371.55843    692.79403     321.2356    1149.5872   -371.55843            0   -9.0667598            0            0            0            0            0            0 
10097000    693.69729    59564.027    435.06782   -391.22855    662.69266    271.46411    874.06524   -391.22855            0   -8.7920439            0            0            0            0            0            0 
10098000    722.47622    57295.079    422.09624   -410.18002    642.93444    232.75442     836.4483   -410.18002            0   -9.1402185            0            0            0            0            0            0 
10099000    575.61733    60224.204    430.18991   -406.11753    655.26266    249.14514    754.71458   -406.11753            0   -8.6956656            0            0            0            0            0            0 
10100000    805.70131    56325.629    443.98545   -405.40972    676.27594    270.86623    932.71079   -405.40972            0   -9.2975358            0            0            0            0            0            0 
10101000    700.06548    58985.856    431.48122   -391.50759    657.22957    265.72198    867.95205   -391.50759            0   -8.8782224            0            0            0            0            0            0 
10102000    647.85055    58718.797    423.89871   -399.84224    645.67995    245.83771    800.62674   -399.84224            0   -8.9186015            0            0            0            0            0            0 
10103000    680.05423    59552.972    418.67796   -385.68167    637.72773    252.04606     842.6861   -385.68167            0   -8.7936761            0            0            0            0            0            0 
10104000    631.65558    57375.949    418.98699   -412.77148    638.19844    225.42697    753.97701   -412.77148            0   -9.1273356            0            0            0            0            0            0 
10105000    671.70094    56812.298    429.32014   -418.67597    653.93783    235.26186    791.79907   -418.67597            0   -9.2178905            0            0            0            0            0            0 
10106000    688.67832     57278.23    417.48991   -405.74826     635.9181    230.16984     805.4533   -405.74826            0   -9.1429073            0            0            0            0            0            0 
10107000    664.58786    57532.077    414.18314   -410.23395    630.88125     220.6473    778.26731   -410.23395            0   -9.1025663            0            0            0            0            0            0 
10108000     736.5916    59004.436    402.41143   -379.87054    612.95066    233.08012    866.93132   -379.87054            0   -8.8754267            0            0            0            0            0            0 
10109000    608.91583      60043.4    413.14747   -396.96674    629.30372    232.33698    765.54715   -396.96674            0   -8.7218503            0            0            0            0            0            0 
10110000     656.2377    58528.545    430.77569   -406.99323    656.15492    249.16169    809.31228   -406.99323            0   -8.9475921            0            0            0            0            0            0 
10111000    760.01099    54553.536    415.70952   -425.95184    633.20623    207.25439    811.92473   -425.95184            0   -9.5995528            0            0            0            0            0            0 
10112000    546.07257    59772.333    403.83301   -405.08207    615.11599    210.03392     686.0553   -405.08207            0   -8.7614038            0            0            0            0            0            0 
10113000    717.31737    58377.398    420.26772   -400.85966    640.14925    239.28958    849.99528   -400.85966            0   -8.9707585            0            0            0            0            0            0 
10114000    677.16184     58469.24     423.5471   -383.81532    645.14438    261.32905    838.75437   -383.81532            0   -8.9566675            0            0            0            0            0            0 
10115000    676.39883    58311.387    414.55149    -394.1742    631.44232    237.26812    812.48565    -394.1742            0   -8.9809138            0            0            0            0            0            0 
10116000    775.96389     58329.17    423.37795   -398.18371    644.88673    246.70302    906.79308   -398.18371            0   -8.9781759            0            0            0            0            0            0 
10117000    707.47734    56757.461     436.0838   -417.99696     664.2402    246.24324    831.85715   -417.99696            0   -9.2267966            0            0            0            0            0            0 
10118000    594.48384    57664.379    392.19215   -415.01968     597.3847    182.36502    682.31156   -415.01968            0   -9.0816819            0            0            0            0            0            0 
10119000    718.96783    59402.081    410.30731   -389.39708     624.9776    235.58052    858.43559   -389.39708            0   -8.8160135            0            0            0            0            0            0 
10120000     703.1305    58364.537    426.26945   -394.85551    649.29104    254.43552      852.931   -394.85551            0   -8.9727354            0            0            0            0            0            0 
10121000    723.35977      57419.4     443.2057   -412.43369    675.08823    262.65454    868.39822   -412.43369            0   -9.1204288            0            0            0            0            0            0 
10122000    822.27679    56982.193    432.87903   -399.33396    659.35872    260.02476    943.35884   -399.33396            0   -9.1904069            0            0            0            0            0            0 
10123000    723.87333    60175.094     419.9762   -377.79945     639.7052    261.90575    897.17121   -377.79945            0   -8.7027624            0            0            0            0            0            0 
10124000    795.80642     56763.33    415.50247   -402.73878    632.89084    230.15206    888.94842   -402.73878            0   -9.2258426            0            0            0            0            0            0 
10125000    642.41387    62337.843     411.3516   -366.31855    626.56827    260.24972    844.28969   -366.31855            0   -8.4008288            0            0            0            0            0            0 
10126000    712.20069    56760.219    429.78975   -408.71679    654.65314    245.93635    835.48865   -408.71679            0   -9.2263483            0            0            0            0            0            0 
10127000    681.77155    58177.199    426.67115    -405.6881    649.90292    244.21482    822.66714    -405.6881            0   -9.0016287            0            0            0            0            0            0 
10128000    709.88171    58244.615    417.61497   -394.42912    636.10859    241.67947    844.67995   -394.42912            0   -8.9912096            0            0            0            0            0            0 
10129000    637.76874    60401.912    412.95427   -384.02133    629.00944     244.9881    806.79854   -384.02133            0   -8.6700823            0            0            0            0            0            0 
10130000    766.80555    54841.335    432.14178   -426.42492    658.23574    231.81082    845.10544   -426.42492            0   -9.5491757            0            0            0            0            0            0 
10131000    867.10041    56066.903    419.86712   -401.90265    639.53905     237.6364    946.64556   -401.90265            0     -9.34044            0            0            0            0            0            0 
10132000    651.28237    59609.935    433.69653   -395.39866    660.60392    265.20526    831.39743   -395.39866            0   -8.7852729            0            0            0            0            0            0 
10133000    697.63234    57074.339    425.39114   -408.97475     647.9532    238.97845    819.66716   -408.97475            0   -9.1755692            0            0            0            0            0            0 
10134000    638.72143    58910.312    396.55485   -393.12418    604.02995    210.90576    759.66103   -393.12418            0   -8.8896073            0            0            0            0            0            0 
10135000    679.74944    57690.591    438.12232   -402.02968    667.34526    265.31558    837.22828   -402.02968            0   -9.0775555            0            0            0            0            0            0 
10136000    599.21669    61740.356    399.03831   -373.15959    607.81273    234.65315    774.19969   -373.15959            0   -8.4821271            0            0            0            0            0            0 
10137000    768.68929    56902.307    393.90839   -400.79062    599.99887    199.20826    837.11412   -400.79062            0   -9.2033096            0            0            0            0            0            0 
10138000    786.57858    58339.429    436.88367   -382.71677    665.45855    282.74179    951.97915   -382.71677            0    -8.976597            0            0            0            0            0            0 
10139000    701.55377    57145.212    434.98345   -413.65747    662.56416    248.90669    833.58462   -413.65747            0   -9.1641893            0            0            0            0            0            0 
10140000     712.4723     58487.49    424.71132   -397.62969    646.91771    249.28801    857.01268   -397.62969            0   -8.9538727            0            0            0            0            0            0 
10141000    569.62083    59251.989    410.59175   -409.55589    625.41087    215.85498    708.08113   -409.55589            0   -8.8383454            0            0            0            0            0            0 
10142000    731.44821    56938.023    405.47069   -411.52881     617.6105    206.08169     813.4636   -411.52881            0   -9.1975365            0            0            0            0            0            0 
10143000    578.02235    61743.655    449.28499   -389.15716    684.34818    295.19102    815.68157   -389.15716            0   -8.4816739            0            0            0            0            0            0 
10144000     712.1747    56325.649    418.98741   -426.90273    638.19908    211.29635    796.31355   -426.90273            0   -9.2975324            0            0            0            0            0            0 
10145000    638.88657    60768.882    426.93747   -395.27389    650.30856    255.03467    821.24905   -395.27389            0   -8.6177256            0            0            0            0            0            0 
10146000    711.87139    57623.559    398.96151   -393.59643    607.69576    214.09933    812.34217   -393.59643            0   -9.0881152            0            0            0            0            0            0 
10147000    757.03479    57693.476    437.41128   -406.28976     666.2622    259.97244    896.94163   -406.28976            0   -9.0771017            0            0            0            0            0            0 
10148000    676.90304    60270.419    454.99673   -393.64661    693.04826    299.40165     894.3874   -393.64661            0   -8.6889979            0            0            0            0            0            0 
10149000    606.86143    58271.451    404.81744   -417.79235    616.61547    198.82312    714.55178   -417.79235            0   -8.9870689            0            0            0            0            0            0 
10150000    649.00494     58717.19    400.84754   -394.88501    610.56855    215.68354    771.44593   -394.88501            0   -8.9188455            0            0            0            0            0            0 
10151000    680.67365    57208.199    390.98294   -402.46734    595.54284     193.0755    760.97711   -402.46734            0   -9.1540995            0            0            0            0            0            0 
10152000     731.4813    61940.925    414.94267    -350.1994    632.03816    281.83876    942.61863    -350.1994            0   -8.4546613            0            0            0            0            0            0 
10153000    612.84306     57165.46    397.24164   -417.33213    605.07605    187.74393    698.67094   -417.33213            0   -9.1609434            0            0            0            0            0            0 
10154000    634.40273    58529.344    425.98578   -404.13173    648.85895    244.72723    786.24734   -404.13173            0   -8.9474699            0            0            0            0            0            0 
10155000     832.8868    57326.792     409.9386   -390.53498    624.41598    233.88101    930.21806   -390.53498            0   -9.1351623            0            0            0            0            0            0 
10156000    717.67047     56678.84     423.5524   -417.67821    645.15244    227.47423    820.70261   -417.67821            0   -9.2395954            0            0            0            0            0            0 
10157000    706.90767    54328.435    395.30056   -434.71906    602.11942    167.40036    727.50063   -434.71906            0   -9.6393268            0            0            0            0            0            0 
10158000    607.10542    58843.614    407.13966   -408.91522    620.15265    211.23743    732.23936   -408.91522            0   -8.8996837            0            0            0            0            0            0 
10159000    617.65574    59687.701    437.42909   -397.39945    666.28934    268.88989    806.54927   -397.39945            0   -8.7738268            0            0            0            0            0            0 
10160000     632.2493    55997.858    428.85369   -430.58852    653.22735    222.63883     738.9787   -430.58852            0   -9.3519568            0            0            0            0            0            0 
10161000    680.89233    57637.181    395.88259   -401.31357    603.00596    201.69239    774.03629   -401.31357            0   -9.0859673            0            0            0            0            0            0 
10162000    680.54953    59001.215    429.57253   -403.26699    654.32227    251.05528    836.64923   -403.26699            0   -8.8759112            0            0            0            0            0            0 
10163000    651.41836    59582.963    425.61288   -391.32966    648.29096     256.9613    823.01545   -391.32966            0   -8.7892497            0            0            0            0            0            0 
10164000    680.68543    58378.819    417.91711   -413.43144    636.56881    223.13737    802.66968   -413.43144            0   -8.9705402            0            0            0            0            0            0 
10165000    692.84621      58565.1    437.18477   -393.37378    665.91719    272.54341    864.31161   -393.37378            0   -8.9420072            0            0            0            0            0            0 
10166000    841.20359    55736.487    438.94142   -408.57372    668.59292    260.01919    943.79952   -408.57372            0   -9.3958118            0            0            0            0            0            0 
10167000    949.69836     55610.17    460.08488   -403.29182     700.7985    297.50668    1067.7285   -403.29182            0   -9.4171542            0            0            0            0            0            0 
10168000    684.98967    60351.214     427.0738   -389.55984    650.51623    260.95639    863.85727   -389.55984            0   -8.6773656            0            0            0            0            0            0 
10169000    906.41877    56899.041    443.19563   -382.69701    675.07289    292.37588     1044.535   -382.69701            0   -9.2038379            0            0            0            0            0            0 
10170000    684.26032    58871.865    427.83325   -398.86558    651.67302    252.80744    840.30361   -398.86558            0   -8.8954129            0            0            0            0            0            0 
10171000    648.72397    57020.347    416.03875   -417.31274    633.70771    216.39497    755.86297   -417.31274            0   -9.1842574            0            0            0            0            0            0 
10172000    771.72527    58129.862    395.91504   -389.68761    603.05539    213.36778    867.60901   -389.68761            0    -9.008959            0            0            0            0            0            0 
10173000    681.31696    57437.428     448.9509    -412.5582    683.83928    271.28109    841.99712    -412.5582            0   -9.1175661            0            0            0            0            0            0 
10174000     753.6856    57506.781    410.09384   -395.18005    624.65245     229.4724    861.57149   -395.18005            0   -9.1065703            0            0            0            0            0            0 
10175000    650.76343    61158.231    419.34696   -370.95255    638.74674    267.79419    848.22967   -370.95255            0   -8.5628628            0            0            0            0            0            0 
10176000    783.74649    54758.417    417.13122   -419.30986    635.37174    216.06188    841.95818   -419.30986            0   -9.5636356            0            0            0            0            0            0 
10177000     701.2699    60615.654    444.26773   -383.28534     676.7059    293.42057    913.35518   -383.28534            0   -8.6395099            0            0            0            0            0            0 
10178000    685.51485     60039.23    428.42532   -390.30304    652.57485    262.27181    862.51587   -390.30304            0    -8.722456            0            0            0            0            0            0 
10179000    838.18394    55797.283    418.74835   -403.59559    637.83495    234.23936     916.3083   -403.59559            0   -9.3855743            0            0            0            0            0            0 
10180000    537.87312    58990.504    446.77776   -413.19551    680.52917    267.33366    730.07451   -413.19551            0   -8.8775228            0            0            0            0            0            0 
10181000    805.46627    59367.153    423.70693    -378.4261    645.38782    266.96172    964.34168    -378.4261            0   -8.8212003            0            0            0            0            0            0 
10182000    729.54599    56721.453    419.41597   -400.46152    638.85186    238.39033    841.88844   -400.46152            0    -9.232654            0            0            0            0            0            0 
10183000    652.83596    59401.032    444.86138    -402.7337    677.61016    274.87646     840.4303    -402.7337            0   -8.8161692            0            0            0            0            0            0 
10184000    675.64096    55808.852    428.03958   -424.11868     651.9873    227.86862    777.78284   -424.11868            0   -9.3836286            0            0            0            0            0            0 
10185000     603.3827    57164.205    394.73601   -411.07788     601.2595    190.18162    693.21049   -411.07788            0   -9.1611445            0            0            0            0            0            0 
10186000    617.30958    63307.343    419.58421   -361.24453    639.10813     277.8636    847.80865   -361.24453            0    -8.272177            0            0            0            0            0            0 
10187000    784.03055    56965.393    403.74511      -393.97    614.98211    221.01211    872.37044      -393.97            0   -9.1931174            0            0            0            0            0            0 
10188000     676.9181     57139.74     401.2743   -414.05992    611.21859    197.15866     761.2511   -414.05992            0    -9.165067            0            0            0            0            0            0 
10189000    680.20401    59382.827    402.91656   -383.67163    613.72006    230.04843    819.13069   -383.67163            0    -8.818872            0            0            0            0            0            0 
10190000    785.26215    54918.033    427.88598   -419.56909    651.75332    232.18423    861.11889   -419.56909            0   -9.5358394            0            0            0            0            0            0 
10191000    686.91031    57697.244    436.99652   -413.20654    665.63045    252.42391    830.42811   -413.20654            0   -9.0765088            0            0            0            0            0            0 
10192000     761.1176    58909.404     418.2704   -382.00428    637.10694    255.10266    909.00408   -382.00428            0   -8.8897445            0            0            0            0            0            0 
10193000    867.99574    54892.947    426.28097   -424.05041    649.30859    225.25817    920.13852   -424.05041            0   -9.5401972            0            0            0            0            0            0 
10194000    644.98429    60911.573    400.87913   -382.16132    610.61665    228.45533    801.41604   -382.16132            0   -8.5975377            0            0            0            0            0            0 
10195000    762.95578    56501.139    442.79931   -412.12683    674.46922    262.34239    891.02646   -412.12683            0   -9.2686546            0            0            0            0            0            0 
10196000    759.61779     57499.38    428.26187   -393.58975    652.32588    258.73613    895.72842   -393.58975            0   -9.1077425            0            0            0            0            0            0 
10197000    650.74526    57207.114    413.96549    -412.0462    630.54972    218.50352     761.4249    -412.0462            0   -9.1542731            0            0            0            0            0            0 
10198000    556.70842    62282.702    425.38453   -384.94848    647.94314    262.99467    768.66925   -384.94848            0   -8.4082664            0            0            0            0            0            0 
10199000    818.04877    55285.936    426.83215    -411.9044    650.14814    238.24374    897.82719    -411.9044            0   -9.4723828            0            0            0            0            0            0 
10200000    603.89381    57299.471    427.62818   -417.61823    651.36065    233.74242    738.38871   -417.61823            0    -9.139518            0            0            0            0            0            0 
10201000    826.89459    56293.656    412.75123   -399.95589    628.70017    228.74429    907.61253   -399.95589            0   -9.3028165            0            0            0            0            0            0 
10202000    684.40255    60677.475    416.94493    -382.7872    635.08799    252.30079    857.94143    -382.7872            0   -8.6307076            0            0            0            0            0            0 
10203000    645.38791    57029.195    396.13542   -420.19426    603.39108    183.19681    719.97388   -420.19426            0   -9.1828325            0            0            0            0            0            0 
10204000     552.9594    59488.504    427.31237   -406.02927    650.87961    244.85034    724.58619   -406.02927            0   -8.8032059            0            0            0            0            0            0 
10205000    936.83254    57155.149     419.2518   -391.56469    638.60181    247.03712    1027.9332   -391.56469            0   -9.1625961            0            0            0            0            0            0 
10206000    771.85918    58316.909    441.43623   -394.87175    672.39299    277.52125    933.98153   -394.87175            0   -8.9800635            0            0            0            0            0            0 
10207000    686.88472    59116.465     436.7652   -394.27612    665.27811    271.00199    863.20172   -394.27612            0   -8.8586072            0            0            0            0            0            0 
10208000    777.03303    57878.991     414.4591   -389.77274    631.30159    241.52885    897.42688   -389.77274            0   -9.0480074            0            0            0            0            0            0 
10209000    709.14613    56640.514    402.84116   -413.05433     613.6052    200.55088    786.33664   -413.05433            0   -9.2458473            0            0            0            0            0            0 
10210000    562.92878    59430.443    425.57393   -408.51405    648.23163    239.71758      727.626   -408.51405            0   -8.8118062            0            0            0            0            0            0 
10211000    699.67773    56636.876    439.00556   -422.57865    668.69061    246.11196     824.0393   -422.57865            0   -9.2464411            0            0            0            0            0            0 
10212000    713.62189     56195.77     427.4998   -415.12725     651.1651    236.03786    820.89214   -415.12725            0   -9.3190207            0            0            0            0            0            0 
10213000    756.25742    55482.421    404.24058    -412.7105    615.73679     203.0263    814.95517    -412.7105            0   -9.4388373            0            0            0            0            0            0 
10214000    561.83888    60548.253    433.29859   -392.64259    659.99778     267.3552    763.47812   -392.64259            0   -8.6491273            0            0            0            0            0            0 
10215000    696.04227    56623.186    418.58624   -422.62589    637.58802    214.96213    789.74763   -422.62589            0   -9.2486768            0            0            0            0            0            0 
10216000    651.88249    59657.346    421.10093   -401.26993    641.41838    240.14844    807.31307   -401.26993            0   -8.7782911            0            0            0            0            0            0 
10217000    775.55248    56811.816    410.22228   -393.24173    624.84808    231.60635     874.1842   -393.24173            0   -9.2179688            0            0            0            0            0            0 
10218000    834.37954    56039.525    452.42106   -404.55371    689.12502     284.5713    966.49216   -404.55371            0   -9.3450034            0            0            0            0            0            0 
10219000    720.33131    58744.071      434.427   -396.92012    661.71658    264.79646    881.92016   -396.92012            0   -8.9147642            0            0            0            0            0            0 
10220000    657.47593    59437.027    440.64096   -404.96507    671.18163    266.21656    836.13516   -404.96507            0     -8.81083            0            0            0            0            0            0 
10221000    752.02526    55360.684    420.79546   -420.67339     640.9531     220.2797    827.44894   -420.67339            0   -9.4595932            0            0            0            0            0            0 
10222000    649.66806    57559.251    411.90348   -412.50199    627.40888    214.90688    760.26595   -412.50199            0    -9.098269            0            0            0            0            0            0 
10223000    710.87166    56493.889    426.18052   -418.28298    649.15559     230.8726    816.56361   -418.28298            0   -9.2698442            0            0            0            0            0            0 
10224000    537.00787    60070.326    424.37929   -413.05258    646.41196    233.35939    703.81269   -413.05258            0   -8.7179409            0            0            0            0            0            0 
10225000    781.11788    56106.787    388.15356   -406.19914    591.23315    185.03402    824.19149   -406.19914            0   -9.3338003            0            0            0            0            0            0 
10226000     682.8303    58699.165     412.3835   -398.88934    628.14005    229.25071    813.79926   -398.88934            0   -8.9215843            0            0            0            0            0            0 
10227000    712.20597     57111.93    422.42884   -412.79012    643.44104    230.65093    823.86076   -412.79012            0   -9.1695298            0            0            0            0            0            0 
10228000    698.65523    57571.671    412.87962   -402.80777    628.89574    226.08797    812.69551   -402.80777            0   -9.0963062            0            0            0            0            0            0 
10229000    700.69184    58115.878     458.2821   -409.36561    698.05251     288.6869    882.56561   -409.36561            0   -9.0111267            0            0            0            0            0            0 
10230000    627.35385    56684.236    416.80896   -419.87075    634.88088    215.01013    733.63191   -419.87075            0   -9.2387158            0            0            0            0            0            0 
10231000     658.7194    60820.679    425.99435   -384.60485    648.87201    264.26715    848.55602   -384.60485            0   -8.6103863            0            0            0            0            0            0 
10232000    781.34459    57440.953    423.19732    -397.6235     644.6116    246.98809    901.53403    -397.6235            0   -9.1170066            0            0            0            0            0            0 
10233000    645.68843    56772.867    432.67482   -423.67671    659.04766    235.37095    769.98421   -423.67671            0   -9.2242927            0            0            0            0            0            0 
10234000     648.5632    59625.739    402.51261   -389.84464    613.10477    223.26013    787.23787   -389.84464            0   -8.7829443            0            0            0            0            0            0 
10235000    656.60009    58815.103    404.52131   -395.03063     616.1644    221.13377    784.33772   -395.03063            0   -8.9039977            0            0            0            0            0            0 
10236000    673.31964    57447.882    419.83735   -413.89334    639.49371    225.60036    789.71997   -413.89334            0   -9.1159069            0            0            0            0            0            0 
10237000    714.47996    59147.554    418.62423   -389.35257    637.64589    248.29332    864.60831   -389.35257            0    -8.853951            0            0            0            0            0            0 
10238000    716.69801    54878.667    405.80231   -425.74394    618.11561    192.37168    765.98026   -425.74394            0   -9.5426799            0            0            0            0            0            0 
10239000    800.39008    54236.063    423.33141   -430.63426    644.81583    214.18157    847.27198   -430.63426            0   -9.6557442            0            0            0            0            0            0 
10240000    658.82282     60539.98     438.2871   -387.62248    667.59625    279.97378    861.65735   -387.62248            0   -8.6503091            0            0            0            0            0            0 
10241000    687.87139    57309.943    447.53401   -410.95055    681.68109    270.73054    845.65808   -410.95055            0    -9.137848            0            0            0            0            0            0 
10242000    738.70894    56995.249    431.42678   -406.86277    657.14666    250.28389    864.31149   -406.86277            0   -9.1883018            0            0            0            0            0            0 
10243000    689.84443    59018.373    410.37098   -397.23762    625.07458    227.83696    821.60154   -397.23762            0   -8.8733308            0            0            0            0            0            0 
10244000    677.21003    57371.389    395.25592   -412.25594    602.05142    189.79548    756.41905   -412.25594            0   -9.1280612            0            0            0            0            0            0 
10245000     789.2989     58526.44    436.15322    -388.9614    664.34593    275.38453     949.0891    -388.9614            0   -8.9479139            0            0            0            0            0            0 
10246000    728.02729    58969.087    428.11183   -389.32586    652.09734    262.77149    888.87761   -389.32586            0    -8.880747            0            0            0            0            0            0 
10247000    754.57793    59947.906    438.38369   -373.53485    667.74338    294.20853    953.91996   -373.53485            0   -8.7357438            0            0            0            0            0            0 
10248000    800.43302    54666.158      426.308   -425.69071    649.34976    223.65905    861.80415   -425.69071            0    -9.579776            0            0            0            0            0            0 
10249000    739.72448    58502.023    447.10858   -395.97629    681.03308    285.05679     916.1838   -395.97629            0   -8.9516485            0            0            0            0            0            0 
10250000    765.29091    59439.747    431.64957   -384.72688    657.48601    272.75913    936.16513   -384.72688            0    -8.810427            0            0            0            0            0            0 
10251000    642.99904    61189.079    416.28303    -374.8098    634.07978    259.26998    833.06944    -374.8098            0   -8.5585459            0            0            0            0            0            0 
10252000    650.39707    56350.546    402.02636   -426.35456    612.36412    186.00956    720.51557   -426.35456            0   -9.2934245            0            0            0            0            0            0 
10253000    775.29939    57135.111    420.32759   -399.35258    640.24044    240.88785    886.91149   -399.35258            0   -9.1658095            0            0            0            0            0            0 
10254000    838.40683    56806.013    426.63178   -392.90019    649.84294    256.94275    951.52712   -392.90019            0   -9.2189104            0            0            0            0            0            0 
10255000    698.97876    58636.284     435.9742   -399.88495    664.07326    264.18831    861.92003   -399.88495            0   -8.9311517            0            0            0            0            0            0 
10256000    713.84249    58528.566    433.24776   -400.29671    659.92036    259.62365    868.94468   -400.29671            0   -8.9475889            0            0            0            0            0            0 
10257000    717.94476    57699.246    427.04434   -400.78059    650.47134    249.69075    853.83001   -400.78059            0   -9.0761938            0            0            0            0            0            0 
10258000    697.99299    58462.941    418.66457    -400.7718    637.70734    236.93554    832.05973    -400.7718            0   -8.9576327            0            0            0            0            0            0 
10259000     779.8189    55791.384    427.30351   -408.80452    650.86612     242.0616    876.56913   -408.80452            0   -9.3865666            0            0            0            0            0            0 
10260000    598.84434    62332.464     424.3466   -374.83457    646.36217     271.5276    815.91007   -374.83457            0   -8.4015537            0            0            0            0            0            0 
10261000    762.67213    56285.097    414.87032   -406.40269    631.92795    225.52526    851.57262   -406.40269            0   -9.3042309            0            0            0            0            0            0 
10262000    744.39042    58198.321    392.79337   -393.49001    598.30048    204.81047    836.62137   -393.49001            0   -8.9983618            0            0            0            0            0            0 
10263000     754.3682    58077.585     419.5934   -389.34738    639.12212    249.77474    888.72612   -389.34738            0   -9.0170682            0            0            0            0            0            0 
10264000    606.67093    59295.653    415.96531   -397.11475    633.59584    236.48108    761.10965   -397.11475            0    -8.831837            0            0            0            0            0            0 
10265000    677.19605    57479.631     416.0859   -418.41117    633.77952    215.36835    783.04924   -418.41117            0   -9.1108718            0            0            0            0            0            0 
10266000    680.68835    61147.834    435.84814   -375.41872    663.88125    288.46254    895.48573   -375.41872            0   -8.5643188            0            0            0            0            0            0 
10267000    874.62022    56319.245    436.34158     -401.937    664.63284    262.69584    981.07251     -401.937            0   -9.2985897            0            0            0            0            0            0 
10268000    532.42493    59624.019    419.38426   -410.84756    638.80356    227.95601    690.92885   -410.84756            0   -8.7831977            0            0            0            0            0            0 
10269000    666.43071    57427.585    414.45546   -413.38453    631.29604    217.91151    776.06216   -413.38453            0   -9.1191289            0            0            0            0            0            0 
10270000     531.7869    61650.564    430.79256   -389.56211    656.18062    266.61851    744.75355   -389.56211            0    -8.494481            0            0            0            0            0            0 
10271000     780.8298    56423.323    432.30765   -405.09593    658.48839    253.39246    895.91879   -405.09593            0   -9.2814375            0            0            0            0            0            0 
10272000    828.33227    55630.204    447.71254   -416.44954    681.95303    265.50349    937.53729   -416.44954            0   -9.4137628            0            0            0            0            0            0 
10273000    704.43829    57085.613    432.35178   -409.17271    658.55561     249.3829    835.85251   -409.17271            0   -9.1737571            0            0            0            0            0            0 
10274000    753.32669    58433.565    441.13877   -391.95552     671.9399    279.98437    921.96456   -391.95552            0   -8.9621358            0            0            0            0            0            0 
10275000    773.93544    55302.929    422.32449   -419.08926     643.2821    224.19284    848.40001   -419.08926            0   -9.4694722            0            0            0            0            0            0 
10276000    585.76084    57987.907    409.71141   -410.56734    624.06993    213.50259     708.8771   -410.56734            0   -9.0310131            0            0            0            0            0            0 
10277000     791.4951    57148.533    413.57948   -396.25013    629.96176    233.71163    893.38538   -396.25013            0   -9.1636569            0            0            0            0            0            0 
10278000    774.94403    58103.532     423.4864   -391.96971    645.05191     253.0822     909.7546   -391.96971            0   -9.0130414            0            0            0            0            0            0 
10279000    823.36202    56613.865    417.80988   -394.17117    636.40548    242.23431     922.0474   -394.17117            0   -9.2501995            0            0            0            0            0            0 
10280000    804.12984    56966.627    424.10454   -397.15404    645.99346    248.83942    916.91035   -397.15404            0   -9.1929183            0            0            0            0            0            0 
10281000    746.00565    58000.834    409.55773   -391.53176    623.83584    232.30409    863.33734   -391.53176            0   -9.0290002            0            0            0            0            0            0 
10282000    707.61722    57445.161    420.34479   -406.41248    640.26663    233.85415    826.68082   -406.41248            0   -9.1163388            0            0            0            0            0            0 
10283000     768.7996    56622.579    432.22812   -410.12482    658.36726    248.24243    883.10349   -410.12482            0   -9.2487759            0            0            0            0            0            0 
10284000    615.36542    60854.025    434.86443   -389.87062    662.38287    272.51225    818.64508   -389.87062            0   -8.6056682            0            0            0            0            0            0 
10285000    832.01945    55940.441    412.98805   -405.65673    629.06089    223.40416    902.19388   -405.65673            0   -9.3615555            0            0            0            0            0            0 
10286000    648.19395    58056.902     406.0228   -401.01781    618.45147    217.43367    766.25972   -401.01781            0   -9.0202806            0            0            0            0            0            0 
10287000    640.28192     58939.66    405.32129   -395.07685    617.38293    222.30607    772.67607   -395.07685            0    -8.885181            0            0            0            0            0            0 
10288000    671.30764    56018.484    429.14306    -419.2906     653.6681     234.3775    782.81714    -419.2906            0   -9.3485134            0            0            0            0            0            0 
10289000    651.89922    59938.507    434.86491   -386.35182     662.3836    276.03177    845.88403   -386.35182            0   -8.7371136            0            0            0            0            0            0 
10290000    680.39402    57721.935    410.49326   -405.30752    625.26085    219.95333    792.71936   -405.30752            0   -9.0726263            0            0            0            0            0            0 
10291000    596.96628    58487.693    413.69086   -409.28428    630.13141    220.84713    730.04922   -409.28428            0   -8.9538418            0            0            0            0            0            0 
10292000    495.93073    61459.553    402.96163   -396.96838    613.78872    216.82034    661.33522   -396.96838            0   -8.5208812            0            0            0            0            0            0 
10293000     715.5037    56314.354    434.46341   -420.99362    661.77203    240.77841    828.41235   -420.99362            0   -9.2993972            0            0            0            0            0            0 
10294000      720.551    58313.546    429.99704    -401.3754    654.96889    253.59349    866.38123    -401.3754            0   -8.9805814            0            0            0            0            0            0 
10295000    774.24113        56559    438.61964   -406.61854    668.10278    261.48424     900.1209   -406.61854            0   -9.2591727            0            0            0            0            0            0 
10296000    576.24307    59152.801     426.6251   -403.39592    649.83277    246.43684     743.5519   -403.39592            0   -8.8531656            0            0            0            0            0            0 
10297000    840.64132    55134.642    408.49395   -405.63912     622.2155    216.57638    892.52111   -405.63912            0   -9.4983757            0            0            0            0            0            0 
10298000    597.77808    61400.056    404.24519   -376.21098    615.74382    239.53283     774.8173   -376.21098            0   -8.5291379            0            0            0            0            0            0 
10299000    738.76837    55234.719    428.03536   -424.56658    651.98086    227.41429    822.52303   -424.56658            0   -9.4811662            0            0            0            0            0            0 
10300000    506.28534    59228.456    392.30112   -406.56625    597.55069    190.98444    628.30677   -406.56625            0   -8.8418571            0            0            0            0            0            0 
10301000    766.21862    55765.624    412.54318   -406.89199    628.38327    221.49128    844.64494   -406.89199            0   -9.3909026            0            0            0            0            0            0 
10302000    700.78576    60691.633    425.40125   -376.35021     647.9686    271.61839    891.90152   -376.35021            0   -8.6286943            0            0            0            0            0            0 
10303000    796.02388    58845.427    427.16032   -376.85929    650.64801    273.78872    956.93657   -376.85929            0   -8.8994094            0            0            0            0            0            0 
10304000     712.9032    58403.863    405.16563   -389.85048    617.14583    227.29535    834.51809   -389.85048            0   -8.9666936            0            0            0            0            0            0 
10305000     659.9747    59376.236    410.09714   -394.05827    624.65748    230.59921    802.09868   -394.05827            0   -8.8198509            0            0            0            0            0            0 
10306000    711.45356    59778.283    417.61812   -386.70275    636.11339    249.41065    869.65938   -386.70275            0   -8.7605318            0            0            0            0            0            0 
10307000    778.94801    56350.093    446.90216   -408.28608    680.71866    272.43258    912.57852   -408.28608            0   -9.2934992            0            0            0            0            0            0 
10308000    734.85806    57789.423    417.45357   -394.94039    635.86275    240.92236    860.26034   -394.94039            0    -9.062031            0            0            0            0            0            0 
10309000      601.824    57241.943     429.3004    -417.3738    653.90777    236.53397    738.94568    -417.3738            0   -9.1487032            0            0            0            0            0            0 
10310000    583.96573    59300.608    426.84141    -403.2799    650.16224    246.88235    751.91842    -403.2799            0   -8.8310991            0            0            0            0            0            0 
10311000    784.99692    56052.546    388.65179   -407.41324    591.99205    184.57882    826.28937   -407.41324            0   -9.3428325            0            0            0            0            0            0 
10312000     694.2358    57221.752    407.40553    -405.8518    620.55763    214.70582    794.05987    -405.8518            0   -9.1519313            0            0            0            0            0            0 
10313000    545.81871    62208.903    380.04627   -379.14994    578.88418    199.73424    694.92992   -379.14994            0   -8.4182411            0            0            0            0            0            0 
10314000    724.65806    56444.073    434.03736   -420.91012    661.12308    240.21296    836.73619   -420.91012            0   -9.2780254            0            0            0            0            0            0 
10315000    777.37164     58024.42    418.96288   -396.10361    638.16171     242.0581     899.8907   -396.10361            0   -9.0253302            0            0            0            0            0            0 
10316000    742.17594    57611.475    418.44362   -407.12498    637.37079    230.24581    853.82521   -407.12498            0   -9.0900214            0            0            0            0            0            0 
10317000     730.2252    58576.813    406.94606   -390.88547    619.85777    228.97229    852.79107   -390.88547            0   -8.9402192            0            0            0            0            0            0 
10318000     666.4187    54384.873    413.49421   -442.48606    629.83188    187.34582     715.9142   -442.48606            0   -9.6293238            0            0            0            0            0            0 
10319000    632.89125    58318.503     423.9049   -407.67354    645.68937    238.01583    776.29968   -407.67354            0    -8.979818            0            0            0            0            0            0 
10320000     713.6821    57529.854    413.87948   -398.03897    630.41871    232.37974    831.16895   -398.03897            0   -9.1029181            0            0            0            0            0            0 
10321000    754.89503    57633.456    415.15727   -389.56635    632.36503    242.79869    877.30671   -389.56635            0   -9.0865546            0            0            0            0            0            0 
10322000    579.91001    59654.956    383.53855   -401.88631    584.20359    182.31728    686.84267   -401.88631            0   -8.7786427            0            0            0            0            0            0 
10323000    741.90603    58069.884    417.65417   -396.45223     636.1683    239.71607    868.02864   -396.45223            0   -9.0182639            0            0            0            0            0            0 
10324000    745.07599     56248.72    430.49619   -413.43295    655.72919    242.29624    853.50434   -413.43295            0   -9.3102482            0            0            0            0            0            0 
10325000     656.3338    56185.553    429.57486   -422.37118    654.32582    231.95464    769.76024   -422.37118            0   -9.3207154            0            0            0            0            0            0 
10326000    652.84984     59207.34    415.42712   -400.86689    632.77607    231.90918    795.63087   -400.86689            0   -8.8450105            0            0            0            0            0            0 
10327000    689.92299    57032.079    403.43779   -406.94291      614.514    207.57109    781.41756   -406.94291            0   -9.1823681            0            0            0            0            0            0 
10328000    657.30336    57820.759    413.96955   -413.31409    630.55592    217.24183    771.51713   -413.31409            0   -9.0571199            0            0            0            0            0            0 
10329000    564.31278    57319.943    414.25911   -418.88405    630.99697    212.11292    683.85164   -418.88405            0   -9.1362537            0            0            0            0            0            0 
10330000    715.83611     56856.32    429.61411   -412.74761     654.3856    241.63799    835.20293   -412.74761            0   -9.2107534            0            0            0            0            0            0 
10331000    705.93947    56880.991    416.98622   -409.35368    635.15089    225.79721    811.40994   -409.35368            0   -9.2067585            0            0            0            0            0            0 
10332000    627.84816    59577.124    406.32466   -387.40199    618.91126    231.50928    777.02849   -387.40199            0   -8.7901112            0            0            0            0            0            0 
10333000    691.43954    55795.565    434.47942   -423.48686    661.79641    238.30956    800.94848   -423.48686            0   -9.3858634            0            0            0            0            0            0 
10334000    750.47564     56967.85    403.88226   -399.22627    615.19101    215.96475    839.47316   -399.22627            0   -9.1927209            0            0            0            0            0            0 
10335000    733.22253    60202.633    416.76246   -381.25177    634.81005    253.55828    897.32301   -381.25177            0   -8.6987814            0            0            0            0            0            0 
10336000    540.63665    60073.402    399.50014     -405.078    608.51619    203.43819     677.0948     -405.078            0   -8.7174944            0            0            0            0            0            0 
10337000    726.66817    55084.215    401.93209   -428.33494    612.22052    183.88557     767.6521   -428.33494            0    -9.507071            0            0            0            0            0            0 
10338000     789.9498    57019.806    429.77354   -402.58759    654.62845    252.04086    908.94366   -402.58759            0   -9.1843446            0            0            0            0            0            0 
10339000    723.35363    59821.248    453.42984   -388.68876    690.66159    301.97282    933.04934   -388.68876            0   -8.7542397            0            0            0            0            0            0 
10340000    705.26258    58559.735    417.58326    -397.6262    636.06029    238.43408    840.75207    -397.6262            0   -8.9428264            0            0            0            0            0            0 
10341000    651.86708    58285.384     410.3869   -399.95025    625.09883    225.14858    779.25681   -399.95025            0   -8.9849206            0            0            0            0            0            0 
10342000    690.84073    58969.251    389.88017   -400.48016     593.8631    193.38294    787.51014   -400.48016            0   -8.8807224            0            0            0            0            0            0 
10343000     780.2613    57816.064    421.69529   -394.80194    642.32371    247.52176    905.42872   -394.80194            0   -9.0578553            0            0            0            0            0            0 
10344000    713.80125    58855.775    447.92286   -401.98033    682.27339    280.29306    892.98515   -401.98033            0   -8.8978448            0            0            0            0            0            0 
10345000     909.6733    58006.702    433.87939   -370.23409    660.88246    290.64836    1060.2031   -370.23409            0   -9.0280869            0            0            0            0            0            0 
10346000    557.10123    60257.973    426.96871    -408.4595    650.35615    241.89665    731.47762    -408.4595            0   -8.6907925            0            0            0            0            0            0 
10347000    533.55784    58384.357    405.97277   -408.77573    618.37525    209.59952     663.9112   -408.77573            0   -8.9696893            0            0            0            0            0            0 
10348000    762.19468    55252.369    410.12548   -429.13537    624.70065    195.56528    809.74109   -429.13537            0   -9.4781373            0            0            0            0            0            0 
10349000    780.49189    55184.594    408.47797   -419.86188    622.19116    202.32928    830.47751   -419.86188            0    -9.489778            0            0            0            0            0            0 
10350000    661.27138    58304.142    387.96175   -402.36338    590.94099    188.57761     750.8607   -402.36338            0   -8.9820298            0            0            0            0            0            0 
10351000     667.0039    58915.569    423.70944   -389.05525    645.39165     256.3364    829.44159   -389.05525            0   -8.8888142            0            0            0            0            0            0 
10352000    762.42089    57794.488    423.59889   -398.81992    645.22327    246.40335    889.02757   -398.81992            0   -9.0612369            0            0            0            0            0            0 
10353000    693.59432    61245.831    441.30422   -372.72959    672.19192    299.46233    918.98605   -372.72959            0   -8.5506154            0            0            0            0            0            0 
[...]
14939000    696.82643    59000.707    432.62694    -397.4068    658.97474    261.56794    861.16255    -397.4068            0   -8.8759876            0            0            0            0            0            0 
14940000    741.23761    56597.851    414.90568   -408.18895    631.98181    223.79286     835.6264   -408.18895            0   -9.2528167            0            0            0            0            0            0 
14941000    752.72924    56820.008    409.74513   -401.96856    624.12129    222.15274     845.9105   -401.96856            0   -9.2166398            0            0            0            0            0            0 
14942000    712.52763    57629.944     407.9235    -394.8369    621.34661     226.5097    825.37038    -394.8369            0   -9.0871084            0            0            0            0            0            0 
14943000    698.96509    58207.721    393.38965   -394.50261    599.20873    204.70611    798.05751   -394.50261            0   -8.9969087            0            0            0            0            0            0 
14944000    717.23786    58713.711    413.48308   -395.30445    629.81492    234.51047    848.66638   -395.30445            0   -8.9193739            0            0            0            0            0            0 
14945000     763.1809    57465.182    434.52027   -402.88323    661.85864    258.97541    898.57499   -402.88323            0   -9.1131626            0            0            0            0            0            0 
14946000    663.21044    60432.353    442.89078   -392.57038    674.60856    282.03818    866.55464   -392.57038            0   -8.6657149            0            0            0            0            0            0 
14947000    714.52269     56350.99    413.63179   -416.79483    630.04144     213.2466    800.45664   -416.79483            0   -9.2933512            0            0            0            0            0            0 
14948000    593.09053     57132.66    407.54323   -426.96217    620.76737     193.8052    687.98083   -426.96217            0   -9.1662028            0            0            0            0            0            0 
14949000    628.26497      61145.2    415.69846     -388.488    633.18938    244.70137     804.9504     -388.488            0   -8.5646877            0            0            0            0            0            0 
14950000    864.21593    56843.202    418.31407   -391.87392    637.17346    245.29954    961.73436   -391.87392            0   -9.2128791            0            0            0            0            0            0 
14951000    711.94106    57862.039    397.35321   -397.64763    605.24599    207.59836    808.37587   -397.64763            0   -9.0506583            0            0            0            0            0            0 
14952000    598.23293    60150.797    414.35387   -393.37977     631.1413    237.76153    762.55399   -393.37977            0   -8.7062778            0            0            0            0            0            0 
14953000    672.63682    58706.637    433.37419   -400.34427    660.11294    259.76868    835.66423   -400.34427            0   -8.9204487            0            0            0            0            0            0 
14954000    715.22356    56928.657    426.56374   -404.74087     649.7393    244.99843    838.80998   -404.74087            0   -9.1990496            0            0            0            0            0            0 
14955000    763.76556    58646.626    430.84052   -393.80992    656.25367    262.44375    915.69311   -393.80992            0   -8.9295767            0            0            0            0            0            0 
14956000    632.36499     58832.51     430.4906   -403.53002    655.72068    252.19066    794.76729   -403.53002            0   -8.9013634            0            0            0            0            0            0 
14957000    610.72721    58023.945    415.34357   -414.87508    632.64881    217.77372    734.58313   -414.87508            0    -9.025404            0            0            0            0            0            0 
14958000    607.79135    58719.092    440.97598   -410.37286    671.69194    261.31909     781.8059   -410.37286            0   -8.9185567            0            0            0            0            0            0 
14959000    664.13123    57971.667    405.98224   -403.50758    618.38969     214.8821    776.37669   -403.50758            0    -9.033543            0            0            0            0            0            0 
14960000    656.39918    58258.539    409.18772   -401.56098    623.27225    221.71127    779.41495   -401.56098            0   -8.9890608            0            0            0            0            0            0 
14961000    663.55546    58405.124    432.41131   -393.94691    658.64629    264.69938    829.90186   -393.94691            0      -8.9665            0            0            0            0            0            0 
14962000    763.58913     56486.98    443.88253   -412.50018    676.11917    263.61899    892.66727   -412.50018            0    -9.270978            0            0            0            0            0            0 
14963000    566.18113    60103.956    442.80657   -402.42817    674.48027    272.05211    768.34075   -402.42817            0   -8.7130629            0            0            0            0            0            0 
14964000    672.45057    59717.305    407.82724   -392.83976    621.19997    228.36022    814.00794   -392.83976            0   -8.7694772            0            0            0            0            0            0 
14965000    856.37184    55520.652    425.40963   -406.27813    647.98136    241.70324    935.11759   -406.27813            0   -9.4323377            0            0            0            0            0            0 
14966000    575.70488    61057.175    426.78043   -392.67894    650.06937    257.39042    770.03044   -392.67894            0   -8.5770353            0            0            0            0            0            0 
14967000    766.67029    57890.845      436.218   -402.12122    664.44462     262.3234    909.60671   -402.12122            0   -9.0461548            0            0            0            0            0            0 
14968000    573.90972    59535.944    437.87855   -401.09147    666.97396    265.88248    764.19146   -401.09147            0   -8.7961912            0            0            0            0            0            0 
14969000    772.12973    57042.339    418.23275   -404.49427    637.04958    232.55531    874.89313   -404.49427            0   -9.1807165            0            0            0            0            0            0 
14970000    740.10792    58574.084     406.3155   -389.95157    618.89731    228.94574     861.1777   -389.95157            0   -8.9406356            0            0            0            0            0            0 
14971000    747.06653    57735.795    419.08289   -401.34368    638.34451    237.00083    866.04381   -401.34368            0   -9.0704483            0            0            0            0            0            0 
14972000    559.85391    57656.351    401.61812   -417.05053    611.74229    194.69176    665.44982   -417.05053            0   -9.0829463            0            0            0            0            0            0 
14973000    691.17939    57341.494     406.2436    -411.1869    618.78778    207.60089    785.61131    -411.1869            0   -9.1328201            0            0            0            0            0            0 
14974000     762.4255    60017.635    427.31741   -379.38602    650.88729    271.50127    938.84899   -379.38602            0   -8.7255945            0            0            0            0            0            0 
14975000    635.97104    58238.513    408.16558   -409.94258    621.71534    211.77276    751.93411   -409.94258            0   -8.9921517            0            0            0            0            0            0 
14976000    631.13048    59821.696    402.26121   -391.99741    612.72183    220.72442    771.34667   -391.99741            0   -8.7541742            0            0            0            0            0            0 
14977000    685.50004     55971.82    415.06367   -421.15002    632.22246    211.07244    770.64035   -421.15002            0   -9.3563072            0            0            0            0            0            0 
14978000    757.92334    56418.381    444.48374   -413.16608    677.03494    263.86886    887.49137   -413.16608            0   -9.2822506            0            0            0            0            0            0 
14979000     566.7159    60197.481    397.29248   -398.48952     605.1535    206.66398    704.19436   -398.48952            0   -8.6995259            0            0            0            0            0            0 
14980000    724.89273    57142.543    417.64145   -408.20649    636.14892    227.94243    832.04293   -408.20649            0   -9.1646174            0            0            0            0            0            0 
14981000    725.39101    59542.871    392.21628   -382.68112    597.42146    214.74034    844.64937   -382.68112            0   -8.7951679            0            0            0            0            0            0 
14982000    950.77668    55750.504    422.09661   -397.21028      642.935    245.72473    1018.7669   -397.21028            0   -9.3934495            0            0            0            0            0            0 
14983000    684.87306    60099.226    431.51286   -379.60549    657.27778    277.67229    877.95365   -379.60549            0   -8.7137485            0            0            0            0            0            0 
14984000     698.5311    56464.389    418.94488    -430.4719     638.1343     207.6624    782.88544    -430.4719            0   -9.2746871            0            0            0            0            0            0 
14985000    649.74004    59357.753    426.12366   -394.29945    649.06898    254.76953    817.23125   -394.29945            0   -8.8225972            0            0            0            0            0            0 
14986000    736.66973    55873.899    429.54607   -417.97495    654.28197    236.30702     836.5923   -417.97495            0   -9.3727046            0            0            0            0            0            0 
14987000    629.08304    57502.677    404.89117   -412.33658    616.72778     204.3912    731.95129   -412.33658            0   -9.1072202            0            0            0            0            0            0 
14988000    679.65308    59237.308    425.49009   -391.68194    648.10392    256.42198    843.58473   -391.68194            0   -8.8405358            0            0            0            0            0            0 
14989000    688.52145    55804.543    431.59048   -426.69567    657.39601    230.70033     791.0549   -426.69567            0   -9.3843533            0            0            0            0            0            0 
14990000    579.68988    59983.151    417.43503    -397.4893     635.8345     238.3452    745.45369    -397.4893            0   -8.7306108            0            0            0            0            0            0 
14991000    730.93477    57629.643    420.52405   -404.68803    640.53968    235.85165    850.17983   -404.68803            0   -9.0871559            0            0            0            0            0            0 
14992000    688.57067    58369.763    400.58072   -391.82912    610.16213      218.333    804.48782   -391.82912            0   -8.9719319            0            0            0            0            0            0 
14993000    658.42304    57182.857    431.89207    -418.0696    657.85539    239.78578    788.87986    -418.0696            0   -9.1581564            0            0            0            0            0            0 
14994000    670.43046    57813.498    417.70158   -404.48358    636.24051    231.75694    797.03075   -404.48358            0   -9.0582574            0            0            0            0            0            0 
14995000     653.6786    58104.284    430.07007   -402.31796    655.08012    252.76216    806.68378   -402.31796            0   -9.0129248            0            0            0            0            0            0 
14996000    744.42317    57495.828    424.94417    -391.4081    647.27238    255.86428    880.07626    -391.4081            0   -9.1083052            0            0            0            0            0            0 
14997000    754.19652    57276.261    410.49342   -389.63709    625.26109    235.62399    865.61605   -389.63709            0   -9.1432216            0            0            0            0            0            0 
14998000    587.39645    61142.466    408.76241   -389.55989    622.62443    233.06454    756.84604   -389.55989            0   -8.5650707            0            0            0            0            0            0 
14999000    750.30153    56470.324    400.35876   -410.31584    609.82403     199.5082    817.42783   -410.31584            0   -9.2737125            0            0            0            0            0            0 
15000000    656.89013      60735.5    435.97621   -385.47543    664.07632    278.60089    860.45114   -385.47543            0   -8.6224621            0            0            0            0            0            0 
Loop time of 1455.81 on 8 procs for 5000000 steps with 512 atoms

Pair  time (%) = 804.53 (55.2634)
Bond  time (%) = 0.455296 (0.0312744)
Neigh time (%) = 34.9476 (2.40056)
Comm  time (%) = 450.313 (30.9321)
Outpt time (%) = 0.290252 (0.0199375)
Other time (%) = 165.275 (11.3528)

Nlocal:    64 ave 68 max 56 min
Histogram: 1 1 0 0 1 0 0 0 1 4
Nghost:    1217 ave 1264 max 1165 min
Histogram: 1 0 0 2 1 1 1 0 1 1
Neighs:    5450.75 ave 5910 max 4543 min
Histogram: 1 0 1 0 0 1 0 0 2 3

Total # of neighbors = 43606
Ave neighs/atom = 85.168
Ave special neighs/atom = 0
Neighbor list builds = 94769
Dangerous builds = 0

Averages
Group Pressure(MPa) Volume(m3) Temperature(K) PE(J) KE(J) ET(J) ET^2(J) H(J) H^2(J^2) V^2(m6) V*H(m3*J) Hconf(J) Uext*Hconf(J^2) V*Hconf(m3*J) Uext(J)
Block1 69.967965612355556004 5.8083026549694349724e-26 420.23597972141789114 -2.7973259149976449237e-18 4.4472256944931904793e-18 1.6498997794955442075e-18 2.7584952740852798647e-36 5.7077620546945991192e-18 3.2850322566932867357e-35 3.3762110550666911028e-51 3.31465546267203904e-43 1.2605363602014069065e-18 -3.5027486549296456041e-36 7.3158489825165261046e-44 -2.7973259149976449237e-18
Block2 70.203038854057083995 5.812564155311790857e-26 420.80078894649085441 -2.7940259471701669274e-18 4.453202893541906971e-18 1.6591769463717423547e-18 2.7902935069893105338e-36 5.7338722970981684724e-18 3.3138265477689069593e-35 3.3812737503610233539e-51 3.3326206830921893906e-43 1.2806694035562549532e-18 -3.5556816429267218367e-36 7.4408979910656915028e-44 -2.7940259471701669274e-18
Block3 70.092111932733033086 5.8092958027573884668e-26 420.07574836481416014 -2.7948522051312159053e-18 4.4455300162539719958e-18 1.6506778111227539719e-18 2.759757983330386216e-36 5.7171035910020333904e-18 3.2952304585184290963e-35 3.3772137109395379361e-51 3.3210223122821155862e-43 1.271573574748060239e-18 -3.5285419297557419846e-36 7.3835956370434098276e-44 -2.7948522051312159053e-18
Block4 69.762008247254939874 5.810515258040555015e-26 421.03022600202348258 -2.7975467994547885458e-18 4.4556309540076226249e-18 1.6580841545528383161e-18 2.7808871821767692326e-36 5.7053833248637602004e-18 3.2800285087702739995e-35 3.3786754750218635891e-51 3.3143249207679914731e-43 1.2497523708561279458e-18 -3.4744522423460768065e-36 7.2538901423932698884e-44 -2.7975467994547885458e-18
Block5 69.987268686342062551 5.8106201924725633852e-26 420.47873518763577749 -2.7945964608166462816e-18 4.4497946995259266152e-18 1.6551982387092770595e-18 2.7741483688617660551e-36 5.7168750838444424813e-18 3.2937384910183333857e-35 3.3786842806580676569e-51 3.3217039383659775882e-43 1.2670803843185193328e-18 -3.5161737889679669985e-36 7.3610631870290791478e-44 -2.7945964608166462816e-18
Ave_blocks 70.002478666548526576 5.8102596127103458505e-26 420.52429564447646726 -2.7956694655140926709e-18 4.4502768515645237372e-18 1.6546073860504310664e-18 2.7727164630887028482e-36 5.7161992703006008868e-18 3.2935712525538462491e-35 3.3784116544094368465e-51 3.3208654634360622173e-43 1.2659224187360740681e-18 -3.5155196517852305124e-36 7.3510591880095946968e-44 -2.7956694655140926709e-18
Stdev_blocks 0.14663357608897878426 1.4328225379846762937e-29 0.35179839725489853164 1.468918907049095053e-21 3.7229722038279415134e-21 3.7661924061773900571e-21 1.2230518314124669139e-38 1.0017800945711546668e-20 1.1570464786518388599e-37 1.7095745463382429951e-54 6.6371023619411793455e-46 1.0404134609156033914e-20 2.6954122616671407435e-38 6.310513932084385954e-46 1.468918907049095053e-21






Properties
Group rho(kg/m3) Cp(J/K) Cp_conf(J/K) Cp_id(J/K) Cp2(J/K) kT(1/Pa) aP(1/K) aP2(1/K) Cv(J/K) uJT(K/Pa) sos(m/s) Cv2(J/K) uJT2(K/Pa) sos2(m/s) CvNVT(J/K)
Block1 234.82306226778450764 1.1146528968700763246e-19 8.7743098333579898293e-22 3.5503809508698414351e-20 3.6381240492034213334e-20 7.6353318595962075987e-09 -0.00041342648509027642807 -0.00040444710164947681201 1.1091888911709947798e-19 -6.1161801284351967466e-07 748.65673567512158115 3.5858317173693668463e-20 -1.8678583820431463282e-06 752.245272083287432 1.4898680044487132208e-20
Block2 234.6509009748493213 1.0674827410336510197e-19 1.2685418762168587534e-21 3.5531547276748588607e-20 3.6800089152965444351e-20 7.9465983103107923935e-09 -0.00016141460614874883917 -0.00021639747368203848029 1.0666807884225692356e-19 -5.8149635584123233182e-07 732.59078428403722683 3.6655954828544139426e-20 -1.7233266865664582691e-06 733.75390193759301383 1.5308398690573478991e-20
Block3 234.78291729793446052 1.0960324938827501435e-19 2.3588215124511815248e-21 3.5495944086868075678e-20 3.7854765599319254193e-20 7.1883431172954397811e-09 -0.00014998280966948852053 -0.00023679008354671456462 1.0952688246884891364e-19 -5.6342357814855238124e-07 770.02301346664432913 3.7664417158744292869e-20 -1.6872763648142042241e-06 771.69734887469292062 1.4374308738361527594e-20
Block4 234.73364330824824719 1.0169299869094971865e-19 -3.9393332775648580752e-22 3.5542820442256764286e-20 3.5148887114500275469e-20 7.3031206076053397683e-09 -0.00056028122898789129575 -0.00054955208320536287365 1.0064144465757892243e-19 -7.06163529355219633e-07 767.74180537730330798 3.4137221089366521588e-20 -2.0356095069803267199e-06 774.99660647843836614 1.2929544741752545697e-20
Block5 234.72940423553004052 1.0435154627374454521e-19 2.6741286471449105905e-21 3.5515728849681566245e-20 3.8189857496826475331e-20 6.977164296679967149e-09 -0.00010930865792066787434 -0.00010291146220541453086 1.0430970578965523535e-19 -5.8242430884315820186e-07 781.56276567564452762 3.8152771063011537308e-20 -1.5873475891613163382e-06 781.7857544006825492 1.4119983817084602237e-20
Ave_blocks 234.74398561686930975 1.0677227162866839049e-19 1.3569979382784527712e-21 3.5517970032850683037e-20 3.6874967971129133739e-20 7.4101116382975498344e-09 -0.00027888275756341455091 -0.00030201964085780144686 1.0641300017508790663e-19 -6.0902515700633644451e-07 760.11502089575014907 3.6493736262672029523e-20 -1.7802837059130902912e-06 762.89577675493887909 1.432618320645185885e-20
Stdev_blocks 0.057884580191768821023 3.5127867647302108697e-21 1.0992773094696721243e-21 1.7277557942060677739e-23 1.0879031796662048756e-21 3.4252411754486354825e-10 0.00017689344406751671482 0.00015683992616927905361 3.6823650983319458183e-21 5.0965734165012648201e-08 17.350606996363406864 1.4216980180711296328e-21 1.5619180598757509636e-07 17.569354711336341524 8.1091715272071130297e-22






