LAMMPS (28 Oct 2012)
Scanning data file ...
Reading data file ...
  orthogonal box = (0 0 0) to (100 100 100)
  2 by 2 by 2 MPI processor grid
  512 atoms
Finding 1-2 1-3 1-4 neighbors ...
  0 = max # of 1-2 neighbors
  0 = max # of 1-3 neighbors
  0 = max # of 1-4 neighbors
  1 = max # of special neighbors
WARNING: Resetting reneighboring criteria during minimization (min.cpp:173)
Setting up minimization ...
Memory usage per processor = 4.05499 Mbytes
Step Temp E_pair E_mol TotEng Press 
       0       320.15    1409.7233            0    1897.3739    434.80808 
     701       320.15   -217.27527            0    270.37527    22.063182 
Loop time of 0.0522701 on 8 procs for 701 steps with 512 atoms

Minimization stats:
  Stopping criterion = energy tolerance
  Energy initial, next-to-last, final = 
         1409.72334813     -217.256630745     -217.275265106
  Force two-norm initial, final = 5034.49 0.337455
  Force max component initial, final = 2457.89 0.147661
  Final line search alpha, max atom move = 0.254892 0.0376377
  Iterations, force evaluations = 701 710

Pair  time (%) = 0.00893334 (17.0907)
Bond  time (%) = 5.67436e-05 (0.108559)
Neigh time (%) = 0.00313848 (6.00436)
Comm  time (%) = 0.0201476 (38.5452)
Outpt time (%) = 0 (0)
Other time (%) = 0.0199939 (38.2511)

Nlocal:    64 ave 74 max 52 min
Histogram: 1 0 0 1 1 2 0 2 0 1
Nghost:    235.125 ave 266 max 224 min
Histogram: 4 0 2 0 0 1 0 0 0 1
Neighs:    316.25 ave 371 max 226 min
Histogram: 1 0 0 1 1 1 0 1 0 3

Total # of neighbors = 2530
Ave neighs/atom = 4.94141
Ave special neighs/atom = 0
Neighbor list builds = 60
Dangerous builds = 0
Setting up run ...
Memory usage per processor = 3.36354 Mbytes
Step Temp E_pair E_mol TotEng Press Volume 
     701       320.15   -217.27527            0    270.37527    22.063182      1000000 
 5000701     331.0968   -519.26651            0   -14.941875    690.70599    47221.388 
Loop time of 1675.63 on 8 procs for 5000000 steps with 512 atoms

Pair  time (%) = 991.803 (59.1899)
Bond  time (%) = 0.459237 (0.0274069)
Neigh time (%) = 33.9366 (2.02531)
Comm  time (%) = 487.945 (29.1201)
Outpt time (%) = 4.12762e-05 (2.46333e-06)
Other time (%) = 161.486 (9.63734)

Nlocal:    64 ave 68 max 60 min
Histogram: 2 0 1 1 0 0 1 1 0 2
Nghost:    1449.25 ave 1484 max 1401 min
Histogram: 1 0 1 1 0 0 2 1 0 2
Neighs:    7018.88 ave 7315 max 6574 min
Histogram: 2 0 0 1 0 0 1 0 1 3

Total # of neighbors = 56151
Ave neighs/atom = 109.67
Ave special neighs/atom = 0
Neighbor list builds = 82663
Dangerous builds = 14
Setting up run ...
Memory usage per processor = 3.9674 Mbytes
Step Press Volume Temp PotEng KinEng TotEng Enthalpy E_vdwl E_coul E_tail E_long E_bond E_angle E_dihed E_impro E_mol 
10000000    690.70599    47221.388     331.0968   -519.26651    504.32464   -14.941875    460.73043   -519.26651            0   -11.090092            0            0            0            0            0            0 
10001000    745.69018    46523.343    306.65322   -515.89455    467.09232   -48.802232      457.145   -515.89455            0    -11.25649            0            0            0            0            0            0 
10002000    647.96048    46852.121    338.11205   -534.06896    515.01023   -19.058732    423.68627   -534.06896            0   -11.177499            0            0            0            0            0            0 
10003000    730.91616    45347.171    328.00873   -539.88069    499.62091   -40.259788    443.12575   -539.88069            0    -11.54845            0            0            0            0            0            0 
10004000    685.94502    47110.036    321.76653   -517.15722    490.11282   -27.044393     444.2352   -517.15722            0   -11.116305            0            0            0            0            0            0 
10005000    783.47271    46076.405    323.08676    -533.6673     492.1238   -41.543506    484.93222    -533.6673            0   -11.365677            0            0            0            0            0            0 
10006000    643.61393    46201.086      295.364   -536.18526    449.89666   -86.288603    347.37553   -536.18526            0   -11.335005            0            0            0            0            0            0 
10007000    762.39577    47614.931    322.66376   -508.68176    491.47949   -17.202271    512.21673   -508.68176            0   -10.998431            0            0            0            0            0            0 
10008000    686.36232    46914.558    327.88532   -519.36456    499.43294   -19.931624    449.67797   -519.36456            0   -11.162623            0            0            0            0            0            0 
10009000    564.57356    46438.761    313.24029   -538.99234    477.12571   -61.866631    320.49742   -538.99234            0   -11.276992            0            0            0            0            0            0 
10010000    617.32363    47492.467    312.64618   -522.88115    476.22077   -46.660386    380.91581   -522.88115            0   -11.026792            0            0            0            0            0            0 
10011000    664.51736    45780.086     313.1897   -541.77789    477.04865   -64.729242    378.93949   -541.77789            0   -11.439243            0            0            0            0            0            0 
10012000    563.68406    46905.803    333.07017   -532.47461    507.33046   -25.144144    360.45692   -532.47461            0   -11.164707            0            0            0            0            0            0 
10013000    836.15097    46549.279     304.4632   -514.92711     463.7565   -51.170613    516.47011   -514.92711            0   -11.250218            0            0            0            0            0            0 
10014000      551.906    46093.828    308.41736   -545.74458    469.77945   -75.965133     295.0433   -545.74458            0   -11.361381            0            0            0            0            0            0 
10015000    566.47207    46752.708    304.11762   -535.69107    463.23012   -72.460952    313.78253   -535.69107            0   -11.201267            0            0            0            0            0            0 
10016000    587.50494    47120.147    333.02821   -530.40505    507.26655   -23.138494    380.59432   -530.40505            0    -11.11392            0            0            0            0            0            0 
10017000    664.92926    47781.304    330.07854   -513.09285    502.77364   -10.319211    453.03097   -513.09285            0   -10.960135            0            0            0            0            0            0 
10018000    660.07407    44446.883    313.27396   -565.12643      477.177   -87.949435    339.91863   -565.12643            0   -11.782368            0            0            0            0            0            0 
10019000    752.64084    46373.293    323.21204   -528.77046    492.31462   -36.455839    472.56037   -528.77046            0   -11.292913            0            0            0            0            0            0 
10020000    589.70701    48230.086    323.67242   -516.63534    493.01586   -23.619475    391.17237   -516.63534            0   -10.858151            0            0            0            0            0            0 
10021000    751.62774    45805.094    297.39063   -528.34565    452.98361   -75.362043    426.74055   -528.34565            0   -11.432998            0            0            0            0            0            0 
10022000    543.61223    46568.049    312.61187   -549.60924     476.1685   -73.440737      295.752   -549.60924            0   -11.245684            0            0            0            0            0            0 
10023000    715.22078     46268.17    327.13579   -532.82368    498.29125   -34.532428    448.07982   -532.82368            0   -11.318571            0            0            0            0            0            0 
10024000    644.02838    47481.559    331.26373    -523.6975     504.5789   -19.118592    426.85164    -523.6975            0   -11.029325            0            0            0            0            0            0 
10025000    535.83045    47375.712    326.92446   -539.62527    497.96935   -41.655915    328.56336   -539.62527            0   -11.053967            0            0            0            0            0            0 
10026000    768.45045    44966.402    314.85744   -546.31347    479.58895   -66.724524    437.21671   -546.31347            0   -11.646241            0            0            0            0            0            0 
10027000    632.00093    47613.452    330.34905   -519.28821    503.18567   -16.102549     422.7547   -519.28821            0   -10.998773            0            0            0            0            0            0 
10028000    726.25527     45920.65    337.46748   -546.29886    514.02842   -32.270435    454.10677   -546.29886            0   -11.404228            0            0            0            0            0            0 
10029000    735.66188    45847.046    319.93836   -538.52425    487.32816   -51.196083    440.69109   -538.52425            0   -11.422536            0            0            0            0            0            0 
10030000    800.69979    45169.217    310.61857   -536.60962    473.13231   -63.477306    463.98104   -536.60962            0   -11.593948            0            0            0            0            0            0 
10031000    771.59091    45264.418    315.07565   -535.20897    479.92131   -55.287659    454.06659   -535.20897            0   -11.569563            0            0            0            0            0            0 
10032000    754.15466    46869.809     341.9322   -520.29813    520.82905   0.53091857     516.0319   -520.29813            0   -11.173281            0            0            0            0            0            0 
10033000    713.51272    47565.047    315.53335   -507.09338    480.61848   -26.474902     468.4799   -507.09338            0   -11.009966            0            0            0            0            0            0 
10034000    715.77312    45370.613    302.42586   -545.52009    460.65323   -84.866855    388.74867   -545.52009            0   -11.542483            0            0            0            0            0            0 
10035000    588.71068    48592.346    317.35284   -510.97448    483.38993    -27.58455    389.61677   -510.97448            0   -10.777202            0            0            0            0            0            0 
10036000    746.19795    46909.879    319.37331   -516.28588    486.46749   -29.818389    480.67986   -516.28588            0   -11.163737            0            0            0            0            0            0 
10037000    666.09129    49115.523    332.07761   -500.16591     505.8186    5.6526956    482.77357   -500.16591            0   -10.662404            0            0            0            0            0            0 
10038000    620.58568    47502.698    321.30316   -526.86777    489.40702   -37.460745    392.46744   -526.86777            0   -11.024417            0            0            0            0            0            0 
10039000    708.11678    44924.346    293.53825   -552.64619    447.11569    -105.5305    358.41027   -552.64619            0   -11.657143            0            0            0            0            0            0 
10040000    546.19995    46058.022     315.4638   -547.75883    480.51254   -67.246291    299.64114   -547.75883            0   -11.370214            0            0            0            0            0            0 
10041000    551.61252    47993.759     331.5974   -519.11693    505.08714   -14.029789    372.06574   -519.11693            0   -10.911618            0            0            0            0            0            0 
10042000    777.95649    47323.322    320.33335   -501.89332    487.92982   -13.963506    522.95258   -501.89332            0   -11.066204            0            0            0            0            0            0 
10043000    783.67687    44364.121    324.21663   -556.64308     493.8448   -62.798282    444.24473   -556.64308            0   -11.804348            0            0            0            0            0            0 
10044000    761.96179    46978.091    315.14824   -520.13589    480.03188   -40.104006    481.93679   -520.13589            0   -11.147527            0            0            0            0            0            0 
10045000    589.36917    47437.593    322.55143   -525.69211    491.30839   -34.383725    373.35874   -525.69211            0   -11.039547            0            0            0            0            0            0 
10046000    725.96974    44516.535    321.65287   -558.96291     489.9397   -69.023206    402.29668   -558.96291            0   -11.763933            0            0            0            0            0            0 
10047000    679.25262    48386.929    340.11844   -513.09641    518.06634    4.9699278    484.30065   -513.09641            0   -10.822955            0            0            0            0            0            0 
10048000    747.12272    45293.733    326.08214   -550.04364    496.68634   -53.357299    440.16405   -550.04364            0   -11.562075            0            0            0            0            0            0 
10049000    571.56396     47021.52    319.66535   -534.98871    486.91233   -48.076376    343.87969   -534.98871            0   -11.137231            0            0            0            0            0            0 
10050000    488.77581    47418.757    313.76673   -539.26366    477.92758   -61.336079    276.67876   -539.26366            0   -11.043932            0            0            0            0            0            0 
10051000    718.17793    47503.344    341.71926   -519.17403    520.50471    1.3306768     498.8754   -519.17403            0   -11.024267            0            0            0            0            0            0 
10052000    721.25492    47793.906    324.14518   -513.39705    493.73597   -19.661074    483.07171   -513.39705            0   -10.957245            0            0            0            0            0            0 
10053000    759.77133    45605.513    313.64515   -534.22751    477.74239   -56.485124    448.84611   -534.22751            0   -11.483032            0            0            0            0            0            0 
10054000    827.22415    47077.873    327.83811   -509.89209    499.36102   -10.531073    557.42654   -509.89209            0     -11.1239            0            0            0            0            0            0 
10055000    695.44006    47621.793    306.59018   -507.76824     466.9963   -40.771941    442.22162   -507.76824            0   -10.996846            0            0            0            0            0            0 
10056000    458.50641    46516.299    311.15152   -550.48738    473.94411    -76.54327    234.50404   -550.48738            0   -11.258194            0            0            0            0            0            0 
10057000    641.68268    46986.659    318.16214   -527.98856    484.62264   -43.365917    396.34857   -527.98856            0   -11.145495            0            0            0            0            0            0 
10058000    551.91171    48850.873    301.35338   -504.44958    459.01964   -45.429943    347.77397   -504.44958            0   -10.720168            0            0            0            0            0            0 
10059000    593.53446    47329.698    296.57166    -522.1048    451.73616    -70.36864    339.32155    -522.1048            0   -11.064713            0            0            0            0            0            0 
10060000    843.16049     45522.01    332.03941   -529.39499    505.76042   -23.634568    536.13278   -529.39499            0   -11.504095            0            0            0            0            0            0 
10061000    548.53961    48486.207    315.06833   -515.72441    479.91017   -35.814247    352.06996   -515.72441            0   -10.800794            0            0            0            0            0            0 
10062000    668.99586     47169.72    323.01589   -528.07384    492.01585   -36.057985    424.15897   -528.07384            0    -11.10224            0            0            0            0            0            0 
10063000    617.72668     46627.34    342.44576   -543.86206     521.6113   -22.250761    397.81074   -543.86206            0   -11.231384            0            0            0            0            0            0 
10064000    667.66257    47311.288    326.09709   -520.99188    496.70911   -24.282767    436.39547   -520.99188            0   -11.069019            0            0            0            0            0            0 
10065000    675.68882    46618.693    316.41002   -529.26722    481.95382   -47.313397    412.07785   -529.26722            0   -11.233467            0            0            0            0            0            0 
10066000    845.62198    43732.169    314.67365   -564.12448    479.30899   -84.815487    454.51277   -564.12448            0   -11.974927            0            0            0            0            0            0 
10067000    617.89986     47177.84    318.88857   -529.37716    485.72914   -43.648014    381.49206   -529.37716            0   -11.100329            0            0            0            0            0            0 
10068000    519.66245    47973.758    313.88452   -517.80001    478.10699    -39.69302     323.8878   -517.80001            0   -10.916167            0            0            0            0            0            0 
10069000    524.36534    47373.313    322.46786   -533.97301    491.18108    -42.79193    319.48746   -533.97301            0   -11.054526            0            0            0            0            0            0 
10070000    728.17785    46136.555    323.70043   -535.33231    493.05853   -42.273775    447.68384   -535.33231            0   -11.350859            0            0            0            0            0            0 
10071000    593.87266    48217.813    312.67699   -516.17262     476.2677   -39.904921    377.71069   -516.17262            0   -10.860915            0            0            0            0            0            0 
10072000    692.11223    47176.569    304.98761    -520.7255    464.55527   -56.170229    420.01812    -520.7255            0   -11.100628            0            0            0            0            0            0 
10073000    896.25722    44690.595    342.11244   -539.25271     521.1036   -18.149109    566.00131   -539.25271            0   -11.718115            0            0            0            0            0            0 
10074000    629.52462    47457.399    337.35299   -526.23802    513.85402   -12.383998    423.32101   -526.23802            0    -11.03494            0            0            0            0            0            0 
10075000    565.97005    45719.813    325.13728   -554.27804    495.24714   -59.030904    318.34467   -554.27804            0   -11.454324            0            0            0            0            0            0 
10076000    534.36527     46664.95     295.5795   -535.08249     450.2249   -84.857592    278.81027   -535.08249            0   -11.222332            0            0            0            0            0            0 
10077000    667.62629    47969.984    283.96609   -508.34274    432.53542   -75.807314    391.25938   -508.34274            0   -10.917026            0            0            0            0            0            0 
10078000     737.8218    47582.273    322.84317   -519.80568    491.75276   -28.052923    483.95014   -519.80568            0    -11.00598            0            0            0            0            0            0 
10079000      734.547    45492.751    311.20543   -545.79878    474.02622   -71.772559    415.57375   -545.79878            0   -11.511494            0            0            0            0            0            0 
10080000    609.11293    47462.654     313.9635     -520.616     478.2273   -42.388694     379.2357     -520.616            0   -11.033718            0            0            0            0            0            0 
10081000    659.49255    45627.514    304.21496   -540.38375    463.37838   -77.005372    361.84107   -540.38375            0   -11.477495            0            0            0            0            0            0 
10082000    738.53937    46273.612    320.30787   -531.86757    487.89101   -43.976559    454.42908   -531.86757            0   -11.317239            0            0            0            0            0            0 
10083000    676.32455    48557.153    335.65879   -504.34239    511.27343    6.9310393     485.8745   -504.34239            0   -10.785013            0            0            0            0            0            0 
10084000     784.8314    45836.554    320.61822   -534.61067    488.36372   -46.246946    478.39647   -534.61067            0   -11.425151            0            0            0            0            0            0 
10085000    600.84763    45695.402    305.22236   -547.62591    464.91285   -82.713057    317.70416   -547.62591            0   -11.460443            0            0            0            0            0            0 
10086000    618.09013     47474.68    314.96678    -518.1759     479.7555   -38.420404    389.52636    -518.1759            0   -11.030923            0            0            0            0            0            0 
10087000    642.78535    47293.927    296.50959    -517.8909    451.64161   -66.249292    377.10124    -517.8909            0   -11.073082            0            0            0            0            0            0 
10088000    579.41038    47030.369      331.095   -534.92021     504.3219    -30.59831     366.8133   -534.92021            0   -11.135136            0            0            0            0            0            0 
10089000    849.27832     47246.87    362.67665   -502.65472    552.42688    49.772158    634.96495   -502.65472            0   -11.084111            0            0            0            0            0            0 
10090000    684.34085    47039.638    332.97133   -528.67639    507.17991   -21.496482    447.97837   -528.67639            0   -11.132942            0            0            0            0            0            0 
10091000    691.31892     47832.19    327.22567   -512.15483    498.42816   -13.726677    468.52595   -512.15483            0   -10.948475            0            0            0            0            0            0 
10092000    671.76832    46985.021    314.31683   -524.20056    478.76549   -45.435075    414.87961   -524.20056            0   -11.145883            0            0            0            0            0            0 
10093000    912.68044    46564.348    308.81775   -498.42067    470.38932   -28.031351    591.76378   -498.42067            0   -11.246577            0            0            0            0            0            0 
10094000    764.02642     46938.73    329.59331    -515.7589    502.03453   -13.724371    509.29239    -515.7589            0   -11.156875            0            0            0            0            0            0 
10095000    755.97557    47010.589    317.83443   -510.30962    484.12348   -26.186141    492.11163   -510.30962            0   -11.139821            0            0            0            0            0            0 
10096000    684.33894    47068.059    324.86693   -530.51788    494.83533   -35.682544    434.07465   -530.51788            0   -11.126219            0            0            0            0            0            0 
10097000    697.75968    45815.007    312.87407   -540.95428    476.56789   -64.386391    401.83212   -540.95428            0   -11.430524            0            0            0            0            0            0 
10098000    677.46552    45557.174    312.26027   -542.70654    475.63295   -67.073596    383.03765   -542.70654            0   -11.495216            0            0            0            0            0            0 
10099000    800.86147    45235.078    309.85766   -533.65928    471.97331    -61.68597    466.64811   -533.65928            0   -11.577067            0            0            0            0            0            0 
10100000    715.84324     46373.93    306.52097   -528.64603    466.89088    -61.75515    422.38123   -528.64603            0   -11.292758            0            0            0            0            0            0 
10101000    701.17928    46636.779    320.69615   -529.19767    488.48243   -40.715246    436.19156   -529.19767            0    -11.22911            0            0            0            0            0            0 
10102000    813.77209    46944.259    337.88816   -511.54786     514.6692    3.1213368    560.25727   -511.54786            0   -11.155561            0            0            0            0            0            0 
10103000    754.83389    45835.141    315.00964   -535.45701    479.82077   -55.636246     448.9389   -535.45701            0   -11.425503            0            0            0            0            0            0 
10104000    643.53648    47734.441    320.27955    -514.2201    487.84787   -26.372231    421.63075    -514.2201            0   -10.970895            0            0            0            0            0            0 
10105000    794.87968    46170.042    329.68315   -524.36177    502.17137   -22.190402    513.03603   -524.36177            0   -11.342627            0            0            0            0            0            0 
10106000    701.85111    46973.501      306.811   -525.40227    467.33265   -58.069616    422.74073   -525.40227            0   -11.148616            0            0            0            0            0            0 
10107000     549.6488    48692.479    324.57621   -509.99645    494.39251   -15.603938    374.71809   -509.99645            0    -10.75504            0            0            0            0            0            0 
10108000    811.09835    44313.023    316.94276   -554.05834    482.76529   -71.293053    452.88735   -554.05834            0    -11.81796            0            0            0            0            0            0 
10109000    639.35363    47172.511    309.99179   -515.73143    472.17762    -43.55381    396.29763   -515.73143            0   -11.101583            0            0            0            0            0            0 
10110000    592.34594    46799.749    312.46888   -542.09053     475.9507   -66.139832    338.15187   -542.09053            0   -11.190008            0            0            0            0            0            0 
10111000    496.82781    47771.981    318.28717   -536.03644    484.81308   -51.223357    294.91923   -536.03644            0   -10.962274            0            0            0            0            0            0 
10112000    656.56903    45846.604     302.5751   -544.39754    460.88056   -83.516982    355.48194   -544.39754            0   -11.422646            0            0            0            0            0            0 
10113000    803.50106    45914.061    329.45261    -526.0665    501.82022   -24.246275    513.78566    -526.0665            0   -11.405864            0            0            0            0            0            0 
10114000    763.65184    46353.011    320.24148   -525.17865    487.78988   -37.388772    478.84836   -525.17865            0   -11.297854            0            0            0            0            0            0 
10115000    621.55698    50241.111    310.27294   -478.64221    472.60586   -6.0363504    449.38782   -478.64221            0   -10.423526            0            0            0            0            0            0 
10116000    817.97605    44834.254    315.47782   -543.86869     480.5339   -63.334784    471.50835   -543.86869            0   -11.680568            0            0            0            0            0            0 
10117000    661.07249    46659.613    328.14348   -530.50119    499.82616   -30.675028     419.1733   -530.50119            0   -11.223615            0            0            0            0            0            0 
10118000    782.49872    47907.289     315.2353   -499.89942     480.1645   -19.734918    526.98025   -499.89942            0   -10.931312            0            0            0            0            0            0 
10119000    553.02089     47227.85     332.5506   -526.29373    506.53906   -19.754663    361.14939   -526.29373            0   -11.088575            0            0            0            0            0            0 
10120000    751.48666    44976.275    335.09313   -552.32904    510.41182   -41.917216    451.00756   -552.32904            0   -11.643684            0            0            0            0            0            0 
10121000    570.13049    47379.741    304.09624   -528.28537    463.19754   -65.087828    328.86374   -528.28537            0   -11.053027            0            0            0            0            0            0 
10122000    635.10078    46494.149    332.13109   -539.04691    505.90006   -33.146849     397.4956   -539.04691            0   -11.263558            0            0            0            0            0            0 
10123000     636.1463    47016.692    307.33619   -520.44067    468.13262   -52.308047    383.89125   -520.44067            0   -11.138375            0            0            0            0            0            0 
10124000    720.92218    45582.037    328.46073   -549.03093    500.30939   -48.721542    430.52392   -549.03093            0   -11.488946            0            0            0            0            0            0 
10125000    689.41856    47856.504    312.70181   -507.90728    476.30549   -31.601782    449.56964   -507.90728            0   -10.942913            0            0            0            0            0            0 
10126000    568.97969    47418.249    309.79131   -531.47496    471.87225   -59.602713    333.87322   -531.47496            0   -11.044051            0            0            0            0            0            0 
10127000    699.63146    45857.296    326.20664   -544.31154    496.87597   -47.435573    420.46509   -544.31154            0   -11.419983            0            0            0            0            0            0 
10128000    746.41753    46182.537    307.94505   -524.46675    469.06003   -55.406722    447.32409   -524.46675            0   -11.339558            0            0            0            0            0            0 
10129000    728.14707    48108.035    306.50387   -505.05827    466.86483   -38.193437    472.67917   -505.05827            0   -10.885698            0            0            0            0            0            0 
10130000     751.7013    46414.935    309.55419   -522.47894    471.51107   -50.967877    457.86941   -522.47894            0   -11.282781            0            0            0            0            0            0 
10131000    591.82852    47991.642    313.01188   -513.59978     476.7778   -36.821972    377.40406   -513.59978            0   -10.912099            0            0            0            0            0            0 
10132000    592.48954    46311.809    334.08238   -544.99111    508.87226   -36.118851    364.05465   -544.99111            0   -11.307905            0            0            0            0            0            0 
10133000    601.16811    47162.771    305.71429   -528.96078    465.66215    -63.29863    350.19721   -528.96078            0   -11.103876            0            0            0            0            0            0 
10134000    637.81798    48126.375     305.3744   -509.42251    465.14444    -44.27807    403.38967   -509.42251            0    -10.88155            0            0            0            0            0            0 
10135000    793.94785    45167.838    344.56619   -547.45436    524.84113   -22.613229    500.38133   -547.45436            0   -11.594302            0            0            0            0            0            0 
10136000    653.91699    47570.703    339.40163   -526.44329     516.9745   -9.4687845    444.19915   -526.44329            0   -11.008657            0            0            0            0            0            0 
10137000    619.01527    45886.436    305.58664   -542.67168    465.46771   -77.203969    337.04514   -542.67168            0   -11.412731            0            0            0            0            0            0 
10138000    459.61529    46900.228    308.06754   -546.84735    469.24662   -77.600731    236.77232   -546.84735            0   -11.166034            0            0            0            0            0            0 
10139000    605.98168    46900.834    318.71506    -536.5122    485.46484   -51.047357    363.44444    -536.5122            0    -11.16589            0            0            0            0            0            0 
10140000    734.26753    47287.692    329.72167   -508.90071    502.23005   -6.6706593    499.71143   -508.90071            0   -11.074542            0            0            0            0            0            0 
10141000    829.64913    47348.181      327.642   -505.90955     499.0623   -6.8472467    566.04593   -505.90955            0   -11.060394            0            0            0            0            0            0 
10142000    669.44363     47035.35    306.79023   -522.99719    467.30102   -55.696172    403.51694   -522.99719            0   -11.133957            0            0            0            0            0            0 
10143000     603.2231    48702.247    303.33048   -496.19325    462.03114   -34.162104    394.29056   -496.19325            0   -10.752883            0            0            0            0            0            0 
10144000    575.34278    46879.236    317.87113   -536.01934    484.17937   -51.839964    341.51359   -536.01934            0   -11.171034            0            0            0            0            0            0 
10145000    811.90177    45641.648    317.80692   -533.29781    484.08158   -49.216236    491.21531   -533.29781            0    -11.47394            0            0            0            0            0            0 
10146000    670.59769    47483.933    307.30419   -520.23675    468.08388   -52.152873    412.23902   -520.23675            0   -11.028773            0            0            0            0            0            0 
10147000    564.25008    46873.897    302.44542   -536.23701    460.68303   -75.553973    310.17173   -536.23701            0   -11.172307            0            0            0            0            0            0 
10148000    767.23048    45229.989    322.82481   -542.71535    491.72479   -50.990556    455.09999   -542.71535            0    -11.57837            0            0            0            0            0            0 
10149000    733.45617    47780.978    326.19373   -507.43148     496.8563   -10.575174     500.5239   -507.43148            0    -10.96021            0            0            0            0            0            0 
10150000    822.48576    46491.237    317.26902   -521.12879    483.26224   -37.866549    519.80101   -521.12879            0   -11.264264            0            0            0            0            0            0 
10151000    766.87847    46227.281    335.89509   -532.52783    511.63336   -20.894475    496.11772   -532.52783            0   -11.328582            0            0            0            0            0            0 
10152000    739.69294    45345.253    315.31086   -544.52572    480.27958   -64.246131    424.92317   -544.52572            0   -11.548939            0            0            0            0            0            0 
10153000    678.33243    47519.473    311.96931   -513.91396    475.18976     -38.7242    431.37562   -513.91396            0   -11.020525            0            0            0            0            0            0 
10154000    645.48825    45880.835    315.61293   -538.46326     480.7397   -57.723558    374.18872   -538.46326            0   -11.414124            0            0            0            0            0            0 
10155000    522.84985    48037.234    317.52717   -527.39128    483.65546   -43.735819    322.55908   -527.39128            0   -10.901742            0            0            0            0            0            0 
10156000     662.3009    46688.096    311.08466   -537.16731    473.84226   -63.325047    387.63431   -537.16731            0   -11.216768            0            0            0            0            0            0 
10157000    614.90346    46331.432    320.55324   -541.13544    488.26475   -52.870687    362.61738   -541.13544            0   -11.303116            0            0            0            0            0            0 
10158000     665.8766     47019.75     313.7209   -528.12608    477.85777   -50.268314    406.34646   -528.12608            0   -11.137651            0            0            0            0            0            0 
10159000    771.35548    46709.622    317.91667   -519.37626    484.24874   -35.127519    490.32903   -519.37626            0   -11.211599            0            0            0            0            0            0 
10160000    732.37386    46363.114    330.19881   -533.77086    502.95682   -30.814037    464.38675   -533.77086            0   -11.295392            0            0            0            0            0            0 
10161000    810.35908    45244.831    332.88505   -543.98403    507.04849   -36.935547    497.77944   -543.98403            0   -11.574572            0            0            0            0            0            0 
10162000    778.69059    46330.618    341.36419   -526.27805    519.96386    -6.314194      519.835   -526.27805            0   -11.303314            0            0            0            0            0            0 
10163000    459.27088    48481.202    308.48902   -525.44639     469.8886   -55.557796    269.16904   -525.44639            0   -10.801909            0            0            0            0            0            0 
10164000    790.64483    45480.289    315.98164   -537.17223    481.30132   -55.870911    468.55065   -537.17223            0   -11.514649            0            0            0            0            0            0 
10165000    659.21646    46961.554    313.90773   -526.78732    478.14236   -48.644962    402.84323   -526.78732            0   -11.151453            0            0            0            0            0            0 
10166000    737.43835    45648.744    300.14038   -533.96691      457.172   -76.794909    414.14737   -533.96691            0   -11.472157            0            0            0            0            0            0 
10167000    713.15858    46413.752    319.50455   -528.43008     486.6674   -41.762677     440.9722   -528.43008            0   -11.283069            0            0            0            0            0            0 
10168000    767.98713     45547.65    324.96743   -541.18514    494.98842    -46.19672    463.95083   -541.18514            0   -11.497619            0            0            0            0            0            0 
10169000    637.25912    46046.347    340.87934    -540.2061    519.22535   -20.980752    406.96343    -540.2061            0   -11.373096            0            0            0            0            0            0 
10170000    696.57056    45196.037    314.64672   -549.70697    479.26797   -70.438995    388.69702   -549.70697            0   -11.587068            0            0            0            0            0            0 
10171000    769.74971     48287.78     317.8707   -503.18326    484.17872   -19.004538    523.07456   -503.18326            0   -10.845178            0            0            0            0            0            0 
10172000    700.33979    47141.453    326.41458   -520.79323    497.19271   -23.600512    457.88991   -520.79323            0   -11.108897            0            0            0            0            0            0 
10173000    854.17914    44909.201    340.48281   -538.56054    518.62135   -19.939189    539.50939   -538.56054            0   -11.661075            0            0            0            0            0            0 
10174000     648.8127    48503.747    314.21457   -504.22296    478.60972   -25.613233     433.3422   -504.22296            0   -10.796889            0            0            0            0            0            0 
10175000    698.58942    48709.457    326.92664    -498.5478    497.97268  -0.57511883    495.68706    -498.5478            0   -10.751291            0            0            0            0            0            0 
10176000    898.22554     45682.74    307.55284   -515.25559    468.46263   -46.792958    551.63715   -515.25559            0   -11.463619            0            0            0            0            0            0 
10177000    670.08818    46656.607    311.42298   -521.78281     474.3576   -47.425215    408.52876   -521.78281            0   -11.224338            0            0            0            0            0            0 
10178000     657.5847     46481.88    301.63151   -527.96776    459.44329   -68.524465    377.24598   -527.96776            0   -11.266531            0            0            0            0            0            0 
10179000    619.65265    46335.157    320.09831   -538.14511    487.57181   -50.573302    368.15743   -538.14511            0   -11.302207            0            0            0            0            0            0 
10180000    654.06616    48008.106    318.97787   -511.23618    485.86516   -25.371018    432.57274   -511.23618            0   -10.908357            0            0            0            0            0            0 
10181000    621.92148    47010.398    337.50069   -528.17369    514.07901   -14.094679    412.29371   -528.17369            0   -11.139866            0            0            0            0            0            0 
10182000     670.1996    46689.877    321.31294   -523.61082    489.42191   -34.188904    422.16606   -523.61082            0    -11.21634            0            0            0            0            0            0 
10183000    710.36892     46100.57    340.93396   -536.83093    519.30855   -17.522388    460.07961   -536.83093            0   -11.359719            0            0            0            0            0            0 
10184000    683.11686    47555.052    322.16982   -508.34098    490.72712   -17.613859    456.15614   -508.34098            0    -11.01228            0            0            0            0            0            0 
10185000    568.08297    46129.823    303.35558   -545.23846    462.06937   -83.169086    299.01223   -545.23846            0   -11.352516            0            0            0            0            0            0 
10186000    647.69554    46378.398    319.71434   -534.20497    486.98695   -47.218025    390.87117   -534.20497            0    -11.29167            0            0            0            0            0            0 
10187000    619.52723    45656.839     332.4024    -547.4935    506.31333    -41.18017     371.3371    -547.4935            0   -11.470123            0            0            0            0            0            0 
10188000    647.12233    46432.848    282.91644   -529.09417    430.93661   -98.157566    340.05779   -529.09417            0   -11.278428            0            0            0            0            0            0 
10189000    656.70705    46564.549    310.77322   -531.34865    473.36788   -57.980763    387.98649   -531.34865            0   -11.246529            0            0            0            0            0            0 
10190000    793.66178    46148.725    331.99565   -529.90616    505.69376   -24.212403    509.94722   -529.90616            0   -11.347866            0            0            0            0            0            0 
10191000     632.8224    45709.511    322.80961   -545.04152    491.70164   -53.339877     368.5162   -545.04152            0   -11.456906            0            0            0            0            0            0 
10192000    622.63425     47565.03    321.20155   -518.89397    489.25225   -29.641714    402.27168   -518.89397            0    -11.00997            0            0            0            0            0            0 
10193000    704.03424    46690.327    320.97386   -523.47823    488.90544   -34.572788    444.82562   -523.47823            0   -11.216232            0            0            0            0            0            0 
10194000    728.87899    46394.019    337.24535   -530.34374    513.69008   -16.653656    476.51256   -530.34374            0   -11.287868            0            0            0            0            0            0 
10195000    746.49708    47616.871    320.70798   -510.96341    488.50045   -22.462961    495.93688   -510.96341            0   -10.997983            0            0            0            0            0            0 
10196000    768.75257    46181.094    326.72955   -526.90726    497.67247   -29.234792    488.52305   -526.90726            0   -11.339912            0            0            0            0            0            0 
10197000    744.34952     46447.62    318.56752   -527.57185    485.24011   -42.331739    461.88384   -527.57185            0   -11.274841            0            0            0            0            0            0 
10198000    866.97704     44061.07    312.00004   -546.79345    475.23657    -71.55688       485.55   -546.79345            0   -11.885539            0            0            0            0            0            0 
10199000    637.67475    46907.346    321.00654   -531.86385    488.95522    -42.90863    393.32182   -531.86385            0    -11.16434            0            0            0            0            0            0 
10200000    655.92914    46907.127    310.78976   -521.90073    473.39308   -48.507649    400.20844   -521.90073            0   -11.164392            0            0            0            0            0            0 
10201000    655.84369    46928.236    332.32315   -529.27502    506.19261   -23.082409    425.77714   -529.27502            0    -11.15937            0            0            0            0            0            0 
10202000    622.38225    45178.691    316.86537   -557.87624    482.64741   -75.228822    334.84942   -557.87624            0   -11.591517            0            0            0            0            0            0 
10203000    707.09176    48352.644    321.37637   -494.33576    489.51854   -4.8172184    493.80531   -494.33576            0   -10.830629            0            0            0            0            0            0 
10204000    814.49964    46820.284    337.59466   -515.37429    514.22215   -1.1521413    555.00924   -515.37429            0     -11.1851            0            0            0            0            0            0 
10205000    628.24885     47174.06    314.26294    -525.1216     478.6834     -46.4382    385.78776    -525.1216            0   -11.101218            0            0            0            0            0            0 
10206000    784.82932    46832.411     314.3271   -513.41433    478.78113   -34.633197    501.40733   -513.41433            0   -11.182203            0            0            0            0            0            0 
10207000    861.24625    46026.014    331.09074    -527.0425    504.31541   -22.727093    555.37774    -527.0425            0   -11.378121            0            0            0            0            0            0 
10208000    789.63659    45572.167    316.62348   -532.24315    482.27896   -49.964194    474.84669   -532.24315            0   -11.491434            0            0            0            0            0            0 
10209000    691.05896    46018.394    320.04425   -537.29742    487.48946   -49.807962    413.98318   -537.29742            0   -11.380005            0            0            0            0            0            0 
10210000    596.18491    46543.282     325.8147   -540.60288    496.27897   -44.323911    360.35808   -540.60288            0   -11.251668            0            0            0            0            0            0 
10211000    740.36983    44986.566     319.9545   -546.86664    487.35276    -59.51388    426.23012   -546.86664            0   -11.641021            0            0            0            0            0            0 
10212000    558.18817     45935.53    323.33559   -552.49859    492.50281   -59.995787    313.94708   -552.49859            0   -11.400533            0            0            0            0            0            0 
10213000    589.74141    45449.827    327.17681   -556.98253    498.35373   -58.628793    332.27487   -556.98253            0   -11.522366            0            0            0            0            0            0 
10214000    781.88407    45118.423    315.67569   -536.54999    480.83529   -55.714704    458.76964   -536.54999            0      -11.607            0            0            0            0            0            0 
10215000    642.93338    47116.717    330.28621   -525.16383    503.08996   -22.073875    419.71715   -525.16383            0   -11.114729            0            0            0            0            0            0 
10216000    625.36407    46049.256      318.069   -546.68759    484.48077   -62.206824    357.77591   -546.68759            0   -11.372378            0            0            0            0            0            0 
10217000     699.6383    45363.039     330.0795   -548.86506    502.77509   -46.089976     416.7721   -548.86506            0   -11.544411            0            0            0            0            0            0 
10218000    597.55234    47598.427    329.20587   -525.33962    501.44438   -23.895244    390.91019   -525.33962            0   -11.002245            0            0            0            0            0            0 
10219000    724.16181    47370.947    320.06239   -514.65151     487.5171   -27.134414     473.1576   -514.65151            0   -11.055079            0            0            0            0            0            0 
10220000    818.02554    46544.278    306.82273   -517.65443    467.35052   -50.303918    504.97228   -517.65443            0   -11.251427            0            0            0            0            0            0 
10221000    716.90256    46880.621    327.51804   -524.46016    498.87349   -25.586676    464.56374   -524.46016            0   -11.170704            0            0            0            0            0            0 
10222000    677.62161    47423.093    328.95936   -519.90804     501.0689   -18.839143    449.81559   -519.90804            0   -11.042923            0            0            0            0            0            0 
10223000    558.53241    46310.143    308.08588   -550.61851    469.27454   -81.343968    295.88096   -550.61851            0   -11.308312            0            0            0            0            0            0 
10224000    651.99086    45889.719    304.60373   -536.54423    463.97055   -72.573681    363.77412   -536.54423            0   -11.411914            0            0            0            0            0            0 
10225000    591.71059    46791.038    302.73234   -536.67997    461.12006   -75.559908    328.22298   -536.67997            0   -11.192091            0            0            0            0            0            0 
10226000     598.7306    48187.548     329.5233    -519.7037    501.92789   -17.775815    402.99167    -519.7037            0   -10.867736            0            0            0            0            0            0 
10227000    692.84072     46357.49    327.13204   -535.46949    498.28554   -37.183954    431.22933   -535.46949            0   -11.296762            0            0            0            0            0            0 
10228000    584.69375    48400.553    320.91335   -511.28272    488.81326    -22.46946    390.24973   -511.28272            0   -10.819908            0            0            0            0            0            0 
10229000    654.96373    45632.666    322.83372   -549.68571    491.73836   -57.947346     377.9347   -549.68571            0   -11.476199            0            0            0            0            0            0 
10230000    617.78296    47830.736    331.51976   -524.36184    504.96888   -19.392955     411.5491   -524.36184            0   -10.948808            0            0            0            0            0            0 
10231000     539.5131    47954.802    305.35185   -526.05904    465.11009   -60.948944    316.37119   -526.05904            0   -10.920482            0            0            0            0            0            0 
10232000    650.80944    46223.951    316.48413   -535.73805    482.06671   -53.671339    385.05812   -535.73805            0   -11.329398            0            0            0            0            0            0 
10233000    598.37385    47561.384    322.92691   -524.02258    491.88031   -32.142265    382.91018   -524.02258            0   -11.010814            0            0            0            0            0            0 
10234000    563.60926    47773.969    312.74005   -524.56465    476.36374   -48.200915    344.48501   -524.56465            0   -10.961818            0            0            0            0            0            0 
10235000    709.86324    45918.011    303.03831   -534.52479    461.58612   -72.938666    402.43338   -534.52479            0   -11.404883            0            0            0            0            0            0 
10236000    742.73501    46555.454    318.60932   -525.74289    485.30378   -40.439113    463.85088   -525.74289            0   -11.248726            0            0            0            0            0            0 
10237000    693.24671    46568.705    312.87598   -528.44251     476.5708   -51.871713     418.9515   -528.44251            0   -11.245525            0            0            0            0            0            0 
10238000    645.55804    47156.729    323.52771   -527.72618    492.79545    -34.93073    409.04053   -527.72618            0   -11.105298            0            0            0            0            0            0 
10239000    645.69506     46754.53     324.7985   -537.58791     494.7311   -42.856807    397.42126   -537.58791            0    -11.20083            0            0            0            0            0            0 
10240000    601.93585    46846.077    316.63048   -536.37737    482.28962    -54.08775    357.15602   -536.37737            0   -11.178941            0            0            0            0            0            0 
10241000    672.43217    45109.941    332.91735   -554.43597     507.0977    -47.33827     395.0429   -554.43597            0   -11.609183            0            0            0            0            0            0 
10242000    757.85194    47936.785    335.28995   -516.84242    510.71162   -6.1307964    523.69019   -516.84242            0   -10.924586            0            0            0            0            0            0 
10243000    696.59791    45820.263    319.48673   -541.75189    486.64025   -55.111645    410.38401   -541.75189            0   -11.429213            0            0            0            0            0            0 
10244000    638.45306    46240.766    324.55635   -539.19067    494.36226   -44.828405    385.72783   -539.19067            0   -11.325278            0            0            0            0            0            0 
10245000    595.86833    46330.543     318.3303   -548.54701    484.87878   -63.668225    338.95015   -548.54701            0   -11.303333            0            0            0            0            0            0 
10246000    540.81864    48306.395     321.0341   -521.05089    488.99719   -32.053697    348.95262   -521.05089            0   -10.840998            0            0            0            0            0            0 
10247000    588.81644    46881.651    311.93352   -533.25767    475.13525   -58.122419    344.46362   -533.25767            0   -11.170459            0            0            0            0            0            0 
10248000    800.37623    45275.965    316.62154   -534.87762      482.276   -52.601614    475.88962   -534.87762            0   -11.566613            0            0            0            0            0            0 
10249000      865.325    46838.175    330.97965   -511.86214     504.1462   -7.7159454    583.37608   -511.86214            0   -11.180827            0            0            0            0            0            0 
10250000    836.88623    45427.152    305.16942    -532.0886     464.8322     -67.2564    487.18776    -532.0886            0   -11.528118            0            0            0            0            0            0 
10251000    640.18663    46939.424    325.91125   -534.88881    496.42603   -38.462773    399.78553   -534.88881            0    -11.15671            0            0            0            0            0            0 
10252000    830.47624    46871.811    347.34575   -509.88371    529.07494    19.191223    586.88592   -509.88371            0   -11.172804            0            0            0            0            0            0 
10253000    625.40257    46753.872    301.75242   -527.99894    459.62746   -68.371488    358.06379   -527.99894            0   -11.200988            0            0            0            0            0            0 
10254000    743.13909    46057.568    301.86644   -521.55193    459.80112   -61.750809    437.41749   -521.55193            0   -11.370326            0            0            0            0            0            0 
10255000    779.49735    47545.672    325.71853   -498.26419    496.13248   -2.1317089    538.37554   -498.26419            0   -11.014452            0            0            0            0            0            0 
10256000    564.56152    47026.804    314.07629   -530.72568     478.3991   -52.326582    334.87099   -530.72568            0    -11.13598            0            0            0            0            0            0 
10257000    502.00099    48981.896    309.72068   -516.69122    471.76466   -44.926555    313.67821   -516.69122            0   -10.691492            0            0            0            0            0            0 
10258000    758.61111    45159.885    350.99549   -552.98384     534.6342   -18.349638    481.27967   -552.98384            0   -11.596344            0            0            0            0            0            0 
10259000    710.73497    46984.101    337.02015   -524.43718    513.34705   -11.090128    475.91608   -524.43718            0   -11.146101            0            0            0            0            0            0 
10260000    671.15438     47557.85    336.90889   -530.13874    513.17757   -16.961166    448.53974   -530.13874            0   -11.011632            0            0            0            0            0            0 
10261000    673.30342    45621.709    353.37859   -549.07921    538.26413    -10.81508    437.16454   -549.07921            0   -11.478955            0            0            0            0            0            0 
10262000    841.30885    45851.598    305.62005   -519.72842     465.5186   -54.209821    508.37216   -519.72842            0   -11.421402            0            0            0            0            0            0 
10263000    622.42488    45750.934    332.12588   -553.47522    505.89213   -47.583084    367.71775   -553.47522            0   -11.446532            0            0            0            0            0            0 
10264000    798.62111    45419.174    323.04908   -538.22119    492.06641   -46.154784     482.8455   -538.22119            0   -11.530142            0            0            0            0            0            0 
10265000    619.52905    48343.708    296.64738    -506.7916    451.85149   -54.940106    381.85476    -506.7916            0   -10.832631            0            0            0            0            0            0 
10266000    917.26156     45633.01    325.29023   -520.95056    495.48011   -25.470456    584.97688   -520.95056            0   -11.476112            0            0            0            0            0            0 
10267000    729.00836    46833.798    333.96675   -521.70512    508.69613    -13.00899    484.92041   -521.70512            0   -11.181872            0            0            0            0            0            0 
10268000    742.55854    45817.823    330.06365   -539.03437    502.75095   -36.283424    459.89861   -539.03437            0   -11.429822            0            0            0            0            0            0 
10269000    549.16752    48309.782    310.62163   -514.72029    473.13699   -41.583303    345.33191   -514.72029            0   -10.840238            0            0            0            0            0            0 
10270000    651.51766    47586.151    308.28108   -518.47247    469.57186   -48.900603    403.24953   -518.47247            0   -11.005083            0            0            0            0            0            0 
10271000    762.93786    47312.803    320.81992   -514.36489    488.67095   -25.693937    500.73983   -514.36489            0   -11.068664            0            0            0            0            0            0 
10272000    726.49065    46317.021    321.58187   -525.94032    489.83155   -36.108772    454.62566   -525.94032            0   -11.306633            0            0            0            0            0            0 
10273000    755.11818    46731.472    315.48084   -518.15154     480.5385   -37.613045    477.02309   -518.15154            0   -11.206357            0            0            0            0            0            0 
10274000    805.00088    45935.923    313.47324   -524.99233    477.48054   -47.511798    491.78109   -524.99233            0   -11.400436            0            0            0            0            0            0 
10275000    727.68952    47013.732    318.96017   -521.14432    485.83819   -35.306126    463.63206   -521.14432            0   -11.139076            0            0            0            0            0            0 
10276000    681.38802    46264.784    331.11424   -535.69959     504.3512   -31.348385    428.40075   -535.69959            0   -11.319399            0            0            0            0            0            0 
10277000    813.35829    46464.562    305.12393   -515.39749    464.76293   -50.634564     500.5279   -515.39749            0    -11.27073            0            0            0            0            0            0 
10278000    608.30172    48389.049    316.64509   -512.51094    482.31187   -30.199067    399.08229   -512.51094            0   -10.822481            0            0            0            0            0            0 
10279000    760.25422    46898.746    332.97716   -513.52471    507.18879   -6.3359134    513.65524   -513.52471            0   -11.166387            0            0            0            0            0            0 
10280000    659.67535     46074.25    322.93044   -540.46976    491.88568   -48.584076    394.68193   -540.46976            0   -11.366209            0            0            0            0            0            0 
10281000    834.42246    45305.752    320.28773   -538.61977    487.86032   -50.759446    500.57511   -538.61977            0   -11.559008            0            0            0            0            0            0 
10282000    644.26695     47233.53    339.67262   -526.12432    517.38728   -8.7370438    435.06791   -526.12432            0   -11.087241            0            0            0            0            0            0 
10283000    566.03778     47412.69    313.30867   -528.66726    477.22986   -51.437398    339.95817   -528.66726            0   -11.045346            0            0            0            0            0            0 
10284000     757.3604     45790.88    322.11778   -530.24835    490.64784    -39.60051    466.17463   -530.24835            0   -11.436547            0            0            0            0            0            0 
10285000    767.68184    46276.031     323.5762   -525.97098    492.86931   -33.101668    484.99793   -525.97098            0   -11.316648            0            0            0            0            0            0 
10286000    709.35854    47043.334    322.84549   -521.02027    491.75629   -29.263986    457.41185   -521.02027            0   -11.132067            0            0            0            0            0            0 
10287000     574.2172    46964.916    297.34677    -532.0845     452.9168   -79.167703    314.13383    -532.0845            0   -11.150654            0            0            0            0            0            0 
10288000    681.91929    46782.226    335.12888   -534.38741    510.46627   -23.921137    441.33246   -534.38741            0   -11.194199            0            0            0            0            0            0 
10289000    722.21642    45096.209    341.10447   -555.47589    519.56826    -35.90763    439.08108   -555.47589            0   -11.612718            0            0            0            0            0            0 
10290000    704.31238    47724.697    322.04972   -514.25102    490.54418   -23.706848    466.50566   -514.25102            0   -10.973135            0            0            0            0            0            0 
10291000    720.00072    46366.399     321.3718   -533.80012    489.51158   -44.288541    442.58054   -533.80012            0   -11.294592            0            0            0            0            0            0 
10292000    819.29111    46648.127    304.58367    -516.8895    463.93999   -52.949507    504.42659    -516.8895            0   -11.226379            0            0            0            0            0            0 
10293000    706.70489    47822.114    343.14468   -506.02006     522.6759    16.655841    509.53762   -506.02006            0   -10.950782            0            0            0            0            0            0 
10294000    736.63549    45912.841    323.51818   -537.71938    492.78093   -44.938445    448.30656   -537.71938            0   -11.406167            0            0            0            0            0            0 
10295000    622.46329    47584.114    337.73755   -529.81996    514.43979   -15.380171    416.58787   -529.81996            0   -11.005554            0            0            0            0            0            0 
10296000    723.80834    46317.571    316.30858   -532.95144    481.79931   -51.152132    437.77625   -532.95144            0   -11.306498            0            0            0            0            0            0 
10297000    574.52053    48514.624     330.2189   -511.03598    502.98742   -8.0485564    398.44542   -511.03598            0   -10.794468            0            0            0            0            0            0 
10298000    643.22428      47518.7    323.25582   -521.24352    492.38131   -28.862216    416.89961   -521.24352            0   -11.020704            0            0            0            0            0            0 
10299000    770.01634    45569.748    309.15866   -534.63967     470.9086   -63.731068    448.01258   -534.63967            0   -11.492044            0            0            0            0            0            0 
10300000    751.54007    47335.393    345.99477   -520.63343    527.01714    6.3837068    525.20049   -520.63343            0   -11.063382            0            0            0            0            0            0 
10301000    821.94238    47004.584    307.98269   -506.03457    469.11737   -36.917198    526.53552   -506.03457            0   -11.141244            0            0            0            0            0            0 
10302000    639.16232    47436.378    343.15064   -521.15216    522.68498     1.532817    443.71228   -521.15216            0    -11.03983            0            0            0            0            0            0 
10303000    874.65374    45489.114    304.34395   -524.31447    463.57485   -60.739623    519.51622   -524.31447            0   -11.512415            0            0            0            0            0            0 
10304000    748.40866    47445.707    316.92073   -511.21286    482.73173   -28.481124    489.37799   -511.21286            0   -11.037659            0            0            0            0            0            0 
10305000    601.44696     46836.72    323.73404   -536.76079    493.10973   -43.651067    367.17661   -536.76079            0   -11.181175            0            0            0            0            0            0 
10306000    590.97424    47986.059    309.82616   -517.48425    471.92533   -45.558915    368.02108   -517.48425            0   -10.913368            0            0            0            0            0            0 
10307000    813.75058    44731.361    317.16874   -544.32968     483.1095   -61.220176    469.63898   -544.32968            0   -11.707436            0            0            0            0            0            0 
10308000    693.06153    46037.081    324.47833   -539.25618    494.24342   -45.012753    420.31126   -539.25618            0   -11.375385            0            0            0            0            0            0 
10309000    722.71355    47053.564    335.06346   -522.66037    510.36663   -12.293743    483.65251   -522.66037            0   -11.129647            0            0            0            0            0            0 
10310000     758.4912    47522.477     317.1368   -510.27938    483.06085   -27.218523    498.46638   -510.27938            0   -11.019828            0            0            0            0            0            0 
10311000    777.95822    46114.774    306.76055   -525.56626    467.25581   -58.310447    464.89498   -525.56626            0   -11.356221            0            0            0            0            0            0 
10312000    741.19377    45150.865    318.52623   -547.25837    485.17722   -62.081149    425.97942   -547.25837            0    -11.59866            0            0            0            0            0            0 
10313000    658.12474    47607.743    342.91359   -516.32434    522.32391    5.9995633    462.94222   -516.32434            0   -11.000092            0            0            0            0            0            0 
10314000    776.84075    44902.028    326.63581   -544.20122    497.52969   -46.671529    462.04266   -544.20122            0   -11.662937            0            0            0            0            0            0 
10315000    688.98924    47497.536    318.58819   -512.12624     485.2716   -26.854637    450.41016   -512.12624            0   -11.025615            0            0            0            0            0            0 
10316000    649.56704    48241.477    306.54476   -503.06904    466.92712   -36.141917    420.86257   -503.06904            0   -10.855587            0            0            0            0            0            0 
10317000    687.35992    46507.726     306.4184   -523.50646    466.73465   -56.771811    409.44207   -523.50646            0    -11.26027            0            0            0            0            0            0 
10318000    752.86059    45581.574     301.7424   -535.36548    459.61219   -75.753294    424.71869   -535.36548            0   -11.489062            0            0            0            0            0            0 
10319000    706.36919    46990.726    321.63425    -529.9418    489.91134   -40.030455     444.0525    -529.9418            0    -11.14453            0            0            0            0            0            0 
10320000    816.35786    45128.042    320.52494   -540.06383    488.22164   -51.842183    485.44065   -540.06383            0   -11.604526            0            0            0            0            0            0 
10321000    679.79007    47228.054    311.74902   -520.39654    474.85421   -45.542325    422.67853   -520.39654            0   -11.088527            0            0            0            0            0            0 
10322000    700.69799    46889.751    309.07934   -516.65886    470.78777   -45.871091    433.29347   -516.65886            0   -11.168529            0            0            0            0            0            0 
10323000    638.90912    47529.326    325.32186    -520.9015    495.52828   -25.373224    417.49715    -520.9015            0   -11.018241            0            0            0            0            0            0 
10324000    790.82013    47179.902    339.56927    -507.2413    517.22985    9.9885502    554.12854    -507.2413            0   -11.099844            0            0            0            0            0            0 
10325000    763.07519    45883.091    325.06563   -535.04975      495.138    -39.91175    470.70598   -535.04975            0   -11.413563            0            0            0            0            0            0 
10326000    637.20291    48327.406    311.26157   -506.23995    474.11173   -32.128221    416.97599   -506.23995            0   -10.836285            0            0            0            0            0            0 
10327000    731.51099     46693.51    309.40706   -519.84731    471.28695   -48.560362    449.58176   -519.84731            0   -11.215467            0            0            0            0            0            0 
10328000    716.67509     47160.57    321.12813    -515.8394    489.14043   -26.698977    466.22193    -515.8394            0   -11.104394            0            0            0            0            0            0 
10329000     541.8752    47674.052    317.70313   -524.59914    483.92348   -40.675659    336.07778   -524.59914            0   -10.984792            0            0            0            0            0            0 
10330000    604.30607    47245.881    312.83025   -530.94027    476.50113   -54.439133    361.94752   -530.94027            0   -11.084343            0            0            0            0            0            0 
10331000    682.20819    47356.892     316.3656   -519.86302    481.88616   -37.976856    433.19139   -519.86302            0    -11.05836            0            0            0            0            0            0 
10332000    706.59193    47306.061    323.36346   -510.06062    492.54525    -17.51537    469.96974   -510.06062            0   -11.070242            0            0            0            0            0            0 
10333000    668.88223    46377.896    322.82837    -531.8142    491.73021    -40.08399    412.33059    -531.8142            0   -11.291792            0            0            0            0            0            0 
10334000    574.72206    47660.158    308.62071   -525.92532     470.0892   -55.836117    343.63854   -525.92532            0   -10.987994            0            0            0            0            0            0 
10335000    535.51007    46657.828    316.95667   -553.06333    482.78647   -70.276859    294.11448   -553.06333            0   -11.224045            0            0            0            0            0            0 
10336000    657.10765    49021.468    302.51596   -495.50085    460.79047   -34.710375    435.07417   -495.50085            0   -10.682861            0            0            0            0            0            0 
10337000    727.01333    45426.644    325.90812   -547.78142    496.42127   -51.360154    430.28691   -547.78142            0   -11.528246            0            0            0            0            0            0 
10338000    667.29999    47111.996    332.16553   -517.41208    505.95252   -11.459568      447.029   -517.41208            0   -11.115843            0            0            0            0            0            0 
10339000    606.92163    47000.393    333.94919   -530.20077    508.66938   -21.531381    394.48458   -530.20077            0   -11.142238            0            0            0            0            0            0 
10340000    663.24769    46206.077    307.21347   -539.32414    467.94569    -71.37845    375.56311   -539.32414            0   -11.333781            0            0            0            0            0            0 
10341000    683.32272    48055.787     333.3391   -508.52899    507.74009  -0.78889924    478.11398   -508.52899            0   -10.897533            0            0            0            0            0            0 
10342000    711.74809    46158.955    342.08479   -543.53222    521.06148   -22.470748    456.66455   -543.53222            0   -11.345351            0            0            0            0            0            0 
10343000    707.53552    45467.858    318.70604   -543.10716    485.45111   -57.656053    411.51222   -543.10716            0   -11.517797            0            0            0            0            0            0 
10344000    502.68498     47017.81     300.7957   -538.34569    458.17018   -80.175507    264.51887   -538.34569            0    -11.13811            0            0            0            0            0            0 
10345000    617.48507     46873.11    315.92997    -529.1842    481.22261   -47.961592    374.14887    -529.1842            0   -11.172494            0            0            0            0            0            0 
10346000    810.29453    46170.947    321.70936   -528.05501    490.02575   -38.029267    507.58733   -528.05501            0   -11.342404            0            0            0            0            0            0 
10347000    602.52258    46918.537    328.91886   -534.11659    501.00721   -33.109384    379.17196   -534.11659            0   -11.161677            0            0            0            0            0            0 
10348000    706.46672    46530.832    323.39994   -524.42426    492.60083   -31.823425    447.58805   -524.42426            0   -11.254678            0            0            0            0            0            0 
10349000    681.32531    46350.257    315.44308   -527.78778    480.48099   -47.306796    413.24932   -527.78778            0   -11.298525            0            0            0            0            0            0 
10350000    601.12415    46000.886     315.4541   -543.31819    480.49777   -62.820425    340.45918   -543.31819            0   -11.384336            0            0            0            0            0            0 
10351000    752.08762    46245.344    332.53618   -529.65415     506.5171   -23.137055     484.1016   -529.65415            0   -11.324157            0            0            0            0            0            0 
10352000    610.27619    47070.519    326.69223   -532.18486    497.61563   -34.569231    384.37026   -532.18486            0   -11.125638            0            0            0            0            0            0 
10353000    738.69971    45897.066    311.65445   -535.56153    474.71016   -60.851366    433.60588   -535.56153            0   -11.410088            0            0            0            0            0            0 
[...]
14939000    701.31225    46596.513    332.17083   -531.64775     505.9606   -25.687154    450.89824   -531.64775            0   -11.238814            0            0            0            0            0            0 
14940000    697.96059    45817.575    303.04438   -535.53297    461.59536   -73.937606    392.44129   -535.53297            0   -11.429884            0            0            0            0            0            0 
14941000    680.93714    46437.778    323.74291   -528.38713    493.12323   -35.263902    425.89897   -528.38713            0   -11.277231            0            0            0            0            0            0 
14942000    729.47609    47047.721    329.68386   -522.07923    502.17245    -19.90678    480.61796   -522.07923            0   -11.131029            0            0            0            0            0            0 
14943000    900.40292    46199.329    319.47414   -510.35271    486.62107   -23.731633    582.93269   -510.35271            0   -11.335436            0            0            0            0            0            0 
14944000    834.43579    46703.648    331.64492   -510.56832    505.15954   -5.4087802    562.94614   -510.56832            0   -11.213033            0            0            0            0            0            0 
14945000    769.66401    45096.115    312.90733   -539.95658    476.61854   -63.338036    442.85504   -539.95658            0   -11.612742            0            0            0            0            0            0 
14946000    713.75007    46673.714    317.65944   -519.85469    483.85694   -35.997754    449.84352   -519.85469            0   -11.220225            0            0            0            0            0            0 
14947000     716.4241    47410.703    316.65684   -514.90151    482.32978   -32.571725    462.79003   -514.90151            0   -11.045809            0            0            0            0            0            0 
14948000    614.56301    47621.508     330.6733   -524.64561    503.67956   -20.966051    405.85463   -524.64561            0   -10.996912            0            0            0            0            0            0 
14949000    573.89551    47631.007    313.49207   -530.18296    477.50922   -52.673747    345.98241   -530.18296            0   -10.994719            0            0            0            0            0            0 
14950000    661.32769    46662.669    310.22985   -528.59258    472.54022   -56.052361    393.99909   -528.59258            0    -11.22288            0            0            0            0            0            0 
14951000    675.59421    49053.407    323.46234   -495.18962    492.69588   -2.4937374    480.82206   -495.18962            0   -10.675906            0            0            0            0            0            0 
14952000    717.85304    45648.041    311.42895   -541.26611    474.36668    -66.89943    410.99677   -541.26611            0   -11.472333            0            0            0            0            0            0 
14953000     768.2976    45626.359    314.09165   -531.88435     478.4225   -53.461854    457.77385   -531.88435            0   -11.477785            0            0            0            0            0            0 
14954000    665.51407    46958.546    325.08791   -531.31514    495.17194   -36.143207    419.62892   -531.31514            0   -11.152167            0            0            0            0            0            0 
14955000     655.7924    47551.761    307.93377   -517.84134    469.04286   -48.798477     405.9894   -517.84134            0   -11.013042            0            0            0            0            0            0 
14956000    736.88539    47932.157    326.78558   -499.70993    497.75781   -1.9521228    513.16124   -499.70993            0   -10.925641            0            0            0            0            0            0 
14957000    753.01211    45993.355    331.71146   -535.86923    505.26089   -30.608349     474.4865   -535.86923            0     -11.3862            0            0            0            0            0            0 
14958000    800.47799    46134.271    360.20099   -531.22119    548.65597     17.43478     556.0132   -531.22119            0   -11.351421            0            0            0            0            0            0 
14959000    663.58535    46171.868    335.21578   -543.19768    510.59865   -32.599027      414.239   -543.19768            0   -11.342178            0            0            0            0            0            0 
14960000    641.27473    47187.353    328.24213   -524.63827    499.97642   -24.661849    416.65004   -524.63827            0   -11.098091            0            0            0            0            0            0 
14961000    783.20464    45114.916    312.28224   -540.02981    475.66642   -64.363387    450.94984   -540.02981            0   -11.607903            0            0            0            0            0            0 
14962000    700.54533    46364.979    322.24069   -524.23643    490.83507   -33.401363    440.29735   -524.23643            0   -11.294938            0            0            0            0            0            0 
14963000    647.53227        48523     334.6949   -504.47402    509.80524    5.3312246    463.56273   -504.47402            0   -10.792604            0            0            0            0            0            0 
14964000     639.7667    44871.474    308.27547    -560.0458    469.56333   -90.482464     328.1837    -560.0458            0   -11.670879            0            0            0            0            0            0 
14965000     646.7144    46887.444    322.88221   -527.33365    491.81223   -35.521415     406.7053   -527.33365            0   -11.169079            0            0            0            0            0            0 
14966000    770.44887    47406.267    337.00145   -510.97555    513.31856    2.3430111    535.00962   -510.97555            0   -11.046842            0            0            0            0            0            0 
14967000    665.95459    46343.995    319.65796   -533.61285    486.90106   -46.711785    403.39336   -533.61285            0   -11.300052            0            0            0            0            0            0 
14968000    765.38185    45449.025    311.67645    -541.6803    474.74368   -66.936618    440.37945    -541.6803            0    -11.52257            0            0            0            0            0            0 
14969000    598.14173    47613.882    328.37201   -524.50447    500.17425   -24.330221    391.01918   -524.50447            0   -10.998673            0            0            0            0            0            0 
14970000    581.24102    46333.418     333.1391   -547.71293    507.43545   -40.277483    352.48182   -547.71293            0   -11.302631            0            0            0            0            0            0 
14971000    714.88725    46752.018    311.36806   -521.67938    474.27395   -47.405433     440.0263   -521.67938            0   -11.201432            0            0            0            0            0            0 
14972000    696.16075    45533.244     321.4546   -541.99532     489.6377   -52.357619    409.93187   -541.99532            0   -11.501257            0            0            0            0            0            0 
14973000    920.51168    45935.137    332.56465   -516.31538    506.56046   -9.7549138    606.91138   -516.31538            0   -11.400631            0            0            0            0            0            0 
14974000    793.97195    46044.114    333.38198   -535.03878    507.80541   -27.233367    505.92369   -535.03878            0   -11.373648            0            0            0            0            0            0 
14975000    612.03655    47155.051    329.92004   -526.05597    502.53221   -23.523757    397.37871   -526.05597            0   -11.105693            0            0            0            0            0            0 
14976000    525.31507    49197.513    313.24572   -511.80053    477.13398    -34.66655    342.24453   -511.80053            0   -10.644635            0            0            0            0            0            0 
14977000    641.56656    46399.228    319.33381   -539.68286    486.40732   -53.275546    380.86302   -539.68286            0     -11.2866            0            0            0            0            0            0 
14978000    607.87378    47087.712    336.64853   -537.65828    512.78099   -24.877286    392.56543   -537.65828            0   -11.121575            0            0            0            0            0            0 
14979000    671.16103    45760.517    330.62752   -544.57081    503.60983    -40.96098     406.9519   -544.57081            0   -11.444135            0            0            0            0            0            0 
14980000    624.81707    47104.873    310.98933   -534.11636    473.69706   -60.419301    368.81518   -534.11636            0   -11.117524            0            0            0            0            0            0 
14981000    719.84583    47854.722    322.39838   -511.53056    491.07525   -20.455306    481.93376   -511.53056            0    -10.94332            0            0            0            0            0            0 
14982000    687.62838    45625.243    323.30317   -540.83607    492.45342   -48.382645    409.16347   -540.83607            0   -11.478066            0            0            0            0            0            0 
14983000    605.10791    50009.604    316.40638   -484.83513    481.94828   -2.8868544    438.44181   -484.83513            0    -10.47178            0            0            0            0            0            0 
14984000    654.23986    46163.643     325.3468   -536.33549    495.56627   -40.769216    399.69737   -536.33549            0   -11.344199            0            0            0            0            0            0 
14985000    606.89598    47031.151    315.12015   -532.33851     479.9891   -52.349408    363.92121   -532.33851            0   -11.134951            0            0            0            0            0            0 
14986000    604.51544    49336.253    333.49735   -503.50678    507.98114    4.4743598    439.43449   -503.50678            0     -10.6147            0            0            0            0            0            0 
14987000    731.96369    45086.216    310.54752   -548.03086     473.0241   -75.006762    406.28587   -548.03086            0   -11.615292            0            0            0            0            0            0 
14988000    560.66905    46356.596    308.65914   -542.48997    470.14773   -72.342238    306.70559   -542.48997            0    -11.29698            0            0            0            0            0            0 
14989000    708.29936    45140.067    301.68506   -544.83634    459.52486   -85.311485    380.97727   -544.83634            0   -11.601435            0            0            0            0            0            0 
14990000    604.72222    46682.607    321.78882    -534.9455    490.14678   -44.798724    366.90701    -534.9455            0   -11.218087            0            0            0            0            0            0 
14991000    825.86613    46239.001    337.77999   -523.30685    514.50443   -8.8024215    548.11908   -523.30685            0   -11.325711            0            0            0            0            0            0 
14992000    556.56457    47859.643    326.83713   -529.19965    497.83633   -31.363315    357.10974   -529.19965            0   -10.942195            0            0            0            0            0            0 
14993000    637.83025     46334.65    313.07763   -545.50227    476.87795    -68.62432    362.38523   -545.50227            0   -11.302331            0            0            0            0            0            0 
14994000    716.91379    46192.634    313.52862   -531.54615    477.56489    -53.98126    428.98362   -531.54615            0   -11.337079            0            0            0            0            0            0 
14995000    731.44773    45375.362    331.18046   -542.53977    504.45207   -38.087696    445.95012   -542.53977            0   -11.541275            0            0            0            0            0            0 
14996000    646.04863    46563.133    317.10486   -533.74919     483.0122   -50.736989    387.97883   -533.74919            0   -11.246871            0            0            0            0            0            0 
14997000    682.45639    46209.445    333.96672     -535.377    508.69608   -26.680924    433.23828     -535.377            0   -11.332955            0            0            0            0            0            0 
14998000    724.28276     47392.87    330.49811   -522.92736    503.41272   -19.514635    481.09251   -522.92736            0   -11.049965            0            0            0            0            0            0 
14999000    770.09043    45105.499    324.59402   -547.23735    494.41964   -52.817715     453.7612   -547.23735            0   -11.610326            0            0            0            0            0            0 
15000000    635.21267    45818.388     323.1759    -543.9653    492.25958   -51.705728     372.7524    -543.9653            0   -11.429681            0            0            0            0            0            0 
Loop time of 1677.58 on 8 procs for 5000000 steps with 512 atoms

Pair  time (%) = 992.554 (59.1657)
Bond  time (%) = 0.460921 (0.0274753)
Neigh time (%) = 33.8729 (2.01915)
Comm  time (%) = 488.011 (29.0901)
Outpt time (%) = 0.242412 (0.01445)
Other time (%) = 162.442 (9.68313)

Nlocal:    64 ave 68 max 59 min
Histogram: 1 1 1 0 0 1 0 1 2 1
Nghost:    1489.5 ave 1523 max 1461 min
Histogram: 1 2 0 1 1 0 0 1 1 1
Neighs:    7240.25 ave 7783 max 6538 min
Histogram: 1 2 0 0 0 0 1 1 1 2

Total # of neighbors = 57922
Ave neighs/atom = 113.129
Ave special neighs/atom = 0
Neighbor list builds = 82432
Dangerous builds = 0

Averages
Group Pressure(MPa) Volume(m3) Temperature(K) PE(J) KE(J) ET(J) ET^2(J) H(J) H^2(J^2) V^2(m6) V*H(m3*J) Hconf(J) Uext*Hconf(J^2) V*Hconf(m3*J) Uext(J)
Block1 69.659029424116496898 4.6728012082479927334e-26 320.14313274669626708 -3.6670675140557941839e-18 3.3879744585660656105e-18 -2.7909305548972539563e-19 1.0313695941382779095e-37 2.9712876519520847611e-18 9.0529772870077330889e-36 2.1846076910311308943e-51 1.3878499498118127316e-43 -4.1668680661398826426e-19 1.5475175186447579472e-36 -1.9529928504158420706e-44 -3.6670675140557941839e-18
Block2 69.445211825269311134 4.6693020347382861607e-26 319.930583673471574 -3.6714134036668507207e-18 3.3857251183253445376e-18 -2.8568828534150136834e-19 1.0562696698706684011e-37 2.9526134152975801926e-18 8.9247466700060123364e-36 2.1812574882330731363e-51 1.3781070156993008775e-43 -4.3311170302776217827e-19 1.6076359688093533964e-36 -2.0280060363171110272e-44 -3.6714134036668507207e-18
Block3 70.185426216622857964 4.6653284861590891463e-26 320.21384339301630462 -3.6709735816950645361e-18 3.3887227671792303826e-18 -2.8225081451583367197e-19 1.0591128990901310296e-37 2.9881203807646351377e-18 9.1648417572744500449e-36 2.1775477239219681969e-51 1.3936823162098586502e-43 -4.0060238641459543754e-19 1.4926104870968210566e-36 -1.872878090585838907e-44 -3.6709735816950645361e-18
Block4 70.076924244616677129 4.6680551108426896225e-26 320.05250613994155628 -3.6689982019522825967e-18 3.3870153855841831364e-18 -2.8198281636809700472e-19 1.0374513012662800162e-37 2.9854430435378301278e-18 9.1414343571667798581e-36 2.1800586999124815593e-51 1.39328284714549685e-43 -4.0157234204635377892e-19 1.4953750323698826532e-36 -1.8781425363100103111e-44 -3.6689982019522825967e-18
Block5 69.743147300254094034 4.6698424826787440662e-26 320.3628885619990001 -3.6696672208127212173e-18 3.3903000655000087932e-18 -2.7936715531271382035e-19 1.0304380450739292184e-37 2.9735576447527926025e-18 9.0558603399706912066e-36 2.1818410284002207561e-51 1.3883438637643606129e-43 -4.1674242074720978702e-19 1.5503902765359161655e-36 -1.9485351643480258165e-44 -3.6696672208127212173e-18
Ave_blocks 69.821947802175898801 4.6690658645333604606e-26 320.14059090302492905 -3.6696239844365431132e-18 3.3879475590309667232e-18 -2.8167642540557422331e-19 1.0429283018878573985e-37 2.9742044272609848725e-18 9.0679720822851341088e-36 2.1810625262997750866e-51 1.3882531985261659046e-43 -4.1374313176998185068e-19 1.5387058566913459431e-36 -1.9361109355953656763e-44 -3.6696239844365431132e-18
Stdev_blocks 0.27269450206303258444 2.4331594650393206125e-29 0.14604834774598990377 1.5461208136159389511e-21 1.5455839006603638855e-21 2.3885287061825280814e-21 1.2325104966526210204e-39 1.2609979866386179029e-20 8.4457677771945895395e-38 2.3053751026306529416e-54 5.6194045898927436227e-46 1.1946629813598073242e-20 4.2350619463048798473e-38 5.6996136796223647578e-46 1.5461208136159389511e-21






Properties
Group rho(kg/m3) Cp(J/K) Cp_conf(J/K) Cp_id(J/K) Cp2(J/K) kT(1/Pa) aP(1/K) aP2(1/K) Cv(J/K) uJT(K/Pa) sos(m/s) Cv2(J/K) uJT2(K/Pa) sos2(m/s) CvNVT(J/K)
Block1 291.88560677705595481 1.5860010037212497904e-19 3.8071733220888725178e-21 3.110660873801055405e-20 3.4913782060099426568e-20 5.3286359769274047304e-09 -0.0008676376000484187093 -0.00089201737492302041275 1.5648669809000469236e-19 -3.7646614758224952958e-07 807.23251940998170539 3.2679942021748552461e-20 -1.7205893547160575292e-06 828.78797904969474075 1.7839678140023433271e-20
Block2 292.10434576106263194 1.4635219684807468237e-19 2.5277043759375536725e-21 3.1098886509763561178e-20 3.3626590885701111841e-20 4.9422843208646078777e-09 -0.00084468467431040943592 -0.00086029563095343106541 1.4419559869609068968e-19 -4.052645943343300511e-07 838.47621704636537743 3.1389542208474604146e-20 -1.7707584024204939778e-06 861.42219423903679854 1.6989571332825956458e-20
Block3 292.35313656143597427 1.6668968615819625397e-19 6.5266850880516681241e-21 3.1109179802002932522e-20 3.7635864890054600646e-20 4.9391919997908701274e-09 -0.00056626863290010806106 -0.00059600482569373367664 1.657198208307710478e-19 -3.3063106000985556952e-07 834.6133050345108586 3.656146495179777328e-20 -1.4761721989361783956e-06 844.32047826391749368 1.8539407602526099895e-20
Block4 292.18237223677647307 1.6161531254226576824e-19 6.7176086355770368453e-21 3.1103315011132231192e-20 3.7820923646709271047e-20 4.774510317764456368e-09 -0.00051261649105850161379 -0.00054238517606414432103 1.6079304429910721168e-19 -3.3622530677201511004e-07 848.82116663132808299 3.690038083014714821e-20 -1.4485079601127771992e-06 857.15471363894437218 1.7133356529977733807e-20
Block5 292.07054008289446756 1.5089369838252112725e-19 6.6226676292412808059e-21 3.1114602468431193885e-20 3.7737270097672471682e-20 5.3165862718958068406e-09 -0.00039400395619951987481 -0.00036476577804512601549 1.5045686810526054865e-19 -3.4854270808490737593e-07 803.65422690873640477 3.7362866735543700945e-20 -1.3820682327014449567e-06 806.50086038407960132 1.7641443422138011047e-20
Ave_blocks 292.11920028384508896 1.5683019886063658143e-19 5.2403678101792823931e-21 3.1106518505868092158e-20 3.6346886316047377561e-20 5.0602417774486291888e-09 -0.00063704227090339150645 -0.00065109375713589114163 1.555304060042468573e-19 -3.5942596335667149547e-07 826.55948700618466773 3.4978839349542355808e-20 -1.5596192297773903693e-06 839.63724511513464677 1.7628691405498248099e-20
Stdev_blocks 0.15223092723092729317 7.3248879606331246224e-21 1.7412750921964373321e-21 5.3094412651567156713e-24 1.7447758545681181181e-21 2.2269145625068067372e-10 0.00018753553181009361534 0.0001993216853193257275 7.5716929996967735996e-21 2.7847477940989948876e-08 17.892106840799367973 2.4514728196093959576e-21 1.5577201874055774193e-07 20.095297717340400823 5.5279528105844275002e-22






