LAMMPS (28 Oct 2012)
Scanning data file ...
Reading data file ...
  orthogonal box = (0 0 0) to (100 100 100)
  2 by 2 by 2 MPI processor grid
  512 atoms
Finding 1-2 1-3 1-4 neighbors ...
  0 = max # of 1-2 neighbors
  0 = max # of 1-3 neighbors
  0 = max # of 1-4 neighbors
  1 = max # of special neighbors
WARNING: Resetting reneighboring criteria during minimization (min.cpp:173)
Setting up minimization ...
Memory usage per processor = 4.05499 Mbytes
Step Temp E_pair E_mol TotEng Press 
       0       540.15    1409.7233            0    2232.4766    450.12639 
     701       540.15   -217.27527            0    605.47794    37.381488 
Loop time of 0.0549289 on 8 procs for 701 steps with 512 atoms

Minimization stats:
  Stopping criterion = energy tolerance
  Energy initial, next-to-last, final = 
         1409.72334813     -217.256630745     -217.275265106
  Force two-norm initial, final = 5034.49 0.337455
  Force max component initial, final = 2457.89 0.147661
  Final line search alpha, max atom move = 0.254892 0.0376377
  Iterations, force evaluations = 701 710

Pair  time (%) = 0.00895697 (16.3065)
Bond  time (%) = 6.00517e-05 (0.109326)
Neigh time (%) = 0.00313708 (5.71117)
Comm  time (%) = 0.0219494 (39.9595)
Outpt time (%) = 0 (0)
Other time (%) = 0.0208255 (37.9135)

Nlocal:    64 ave 74 max 52 min
Histogram: 1 0 0 1 1 2 0 2 0 1
Nghost:    235.125 ave 266 max 224 min
Histogram: 4 0 2 0 0 1 0 0 0 1
Neighs:    316.25 ave 371 max 226 min
Histogram: 1 0 0 1 1 1 0 1 0 3

Total # of neighbors = 2530
Ave neighs/atom = 4.94141
Ave special neighs/atom = 0
Neighbor list builds = 60
Dangerous builds = 0
Setting up run ...
Memory usage per processor = 3.36354 Mbytes
Step Temp E_pair E_mol TotEng Press Volume 
     701       540.15   -217.27527            0    605.47794    37.381488      1000000 
 5000701    553.64254   -310.11009            0    533.19486    751.21236    70559.276 
Loop time of 1257.51 on 8 procs for 5000000 steps with 512 atoms

Pair  time (%) = 649.595 (51.6572)
Bond  time (%) = 0.450753 (0.0358448)
Neigh time (%) = 34.4091 (2.73629)
Comm  time (%) = 415.305 (33.026)
Outpt time (%) = 5.32866e-05 (4.23746e-06)
Other time (%) = 157.751 (12.5447)

Nlocal:    64 ave 70 max 49 min
Histogram: 1 0 0 0 0 0 3 0 2 2
Nghost:    1103 ave 1132 max 1068 min
Histogram: 1 0 2 0 1 0 0 2 0 2
Neighs:    4690.88 ave 5471 max 3369 min
Histogram: 1 0 0 0 1 1 1 2 1 1

Total # of neighbors = 37527
Ave neighs/atom = 73.2949
Ave special neighs/atom = 0
Neighbor list builds = 107632
Dangerous builds = 6
Setting up run ...
Memory usage per processor = 3.9404 Mbytes
Step Press Volume Temp PotEng KinEng TotEng Enthalpy E_vdwl E_coul E_tail E_long E_bond E_angle E_dihed E_impro E_mol 
10000000    751.21236    70559.276    553.64254   -310.11009    843.30495    533.19486    1306.2184   -310.11009            0   -7.4219801            0            0            0            0            0            0 
10001000    597.70714    74444.288    548.44042   -307.25809    835.38113    528.12304    1177.0498   -307.25809            0   -7.0346505            0            0            0            0            0            0 
10002000    575.95648    73367.598    536.42603   -316.03395    817.08088    501.04693    1117.3153   -316.03395            0   -7.1378859            0            0            0            0            0            0 
10003000    562.08177    71363.419     578.0404   -334.47436    880.46763    545.99327    1130.9868   -334.47436            0   -7.3383472            0            0            0            0            0            0 
10004000    760.50232    69991.745    545.88124   -306.28553    831.48299    525.19747    1301.4861   -306.28553            0   -7.4821616            0            0            0            0            0            0 
10005000    789.13853    74069.993    556.73742   -282.11632    848.01906    565.90273    1418.3577   -282.11632            0   -7.0701984            0            0            0            0            0            0 
10006000    746.41521    73293.343    564.52885   -286.22507    859.88692    573.66185    1371.5112   -286.22507            0   -7.1451175            0            0            0            0            0            0 
10007000    678.68967    73504.896     518.6881   -289.73465    790.06257    500.32792    1227.8788   -289.73465            0   -7.1245532            0            0            0            0            0            0 
10008000    749.31722    69351.658    544.11781   -311.13128    828.79695    517.66568    1275.5422   -311.13128            0   -7.5512188            0            0            0            0            0            0 
10009000    579.06912    74879.613    507.06067   -290.91756    772.35174    481.43418    1113.8022   -290.91756            0   -6.9937534            0            0            0            0            0            0 
10010000    639.77114     72783.27    531.20332   -306.29521    809.12567    502.83046    1181.9279   -306.29521            0   -7.1951913            0            0            0            0            0            0 
10011000    641.91306    71750.695    512.91703   -301.87031    781.27211    479.40181    1151.1062   -301.87031            0   -7.2987383            0            0            0            0            0            0 
10012000    691.71842    68811.636    514.84019   -328.99421    784.20145    455.20724    1149.3793   -328.99421            0   -7.6104795            0            0            0            0            0            0 
10013000    818.60799    72622.169    574.44695   -286.40444    874.99412    588.58968    1455.5936   -286.40444            0   -7.2111526            0            0            0            0            0            0 
10014000    753.38893    72356.773    546.04557   -292.55168    831.73329    539.18161    1334.1948   -292.55168            0   -7.2376023            0            0            0            0            0            0 
10015000    682.05941    69358.771    524.97288   -319.11998    799.63551    480.51553    1170.4367   -319.11998            0   -7.5504444            0            0            0            0            0            0 
10016000     610.1088    75481.363    525.93266    -293.7944    801.09744    507.30304    1178.9219    -293.7944            0    -6.937998            0            0            0            0            0            0 
10017000    767.99766    72898.248    533.08972    -287.2029    811.99903    524.79613    1341.2899    -287.2029            0   -7.1838427            0            0            0            0            0            0 
10018000    694.68143    71708.578    542.32777   -307.30852    826.07037    518.76185    1245.2569   -307.30852            0   -7.3030251            0            0            0            0            0            0 
10019000    662.10381    74814.807    565.03848   -300.78139    860.66319     559.8818    1282.3014   -300.78139            0   -6.9998114            0            0            0            0            0            0 
10020000    660.75886    72820.265    556.65284   -308.05712    847.89023    539.83311    1241.5649   -308.05712            0   -7.1915358            0            0            0            0            0            0 
10021000    699.07592    72693.646    526.62096   -297.93282    802.14586    504.21304    1245.3469   -297.93282            0   -7.2040622            0            0            0            0            0            0 
10022000    633.77331    73558.124    539.49724   -299.50627    821.75893    522.25266    1202.1455   -299.50627            0   -7.1193978            0            0            0            0            0            0 
10023000    694.57662    72051.364    525.91046   -305.72171    801.06362    495.34191    1225.1997   -305.72171            0   -7.2682808            0            0            0            0            0            0 
10024000    777.20839    74276.254    571.28995   -278.83562    870.18538    591.34977    1433.2553   -278.83562            0   -7.0505648            0            0            0            0            0            0 
10025000    904.14326    69180.874    541.57018   -290.87918    824.91641    534.03724    1446.2564   -290.87918            0   -7.5698602            0            0            0            0            0            0 
10026000    589.66954    75520.993    549.60799   -295.22866    837.15956     541.9309    1191.3907   -295.22866            0   -6.9343573            0            0            0            0            0            0 
10027000    655.56599    71794.067    546.96067   -323.33013    833.12718    509.79705    1196.2027   -323.33013            0    -7.294329            0            0            0            0            0            0 
10028000    796.92859    70967.217    524.71138    -293.4863    799.23718    505.75088    1330.5593    -293.4863            0   -7.3793164            0            0            0            0            0            0 
10029000    656.05764    75264.456    568.93793   -296.09576     866.6028    570.50704    1290.6319   -296.09576            0   -6.9579928            0            0            0            0            0            0 
10030000    603.23556    74468.494    526.27624   -307.34708    801.62077     494.2737    1149.4156   -307.34708            0   -7.0323638            0            0            0            0            0            0 
10031000    635.54577    70794.004    544.04452   -322.39659    828.68532    506.28873     1162.463   -322.39659            0   -7.3973715            0            0            0            0            0            0 
10032000    707.59931    72178.366    534.18259   -297.82896    813.66368    515.83472    1260.6873   -297.82896            0   -7.2554919            0            0            0            0            0            0 
10033000    779.06243    70727.417    545.22435   -294.45041    830.48242    536.03201    1339.6246   -294.45041            0   -7.4043358            0            0            0            0            0            0 
10034000     581.9454    77254.213     555.0401   -285.15631    845.43371     560.2774    1215.9398   -285.15631            0    -6.778783            0            0            0            0            0            0 
10035000    736.51641     71695.14     536.3252   -305.57053    816.92729    511.35676    1281.4584   -305.57053            0   -7.3043939            0            0            0            0            0            0 
10036000     650.3006    73052.786    544.23727   -308.31108    828.97891    520.66783    1213.4981   -308.31108            0   -7.1686458            0            0            0            0            0            0 
10037000    578.19055    74252.244     536.8904   -309.14122     817.7882    508.64698    1134.7654   -309.14122            0   -7.0528447            0            0            0            0            0            0 
10038000    672.35613    71269.251    515.41068   -318.19608    785.07041    466.87433    1165.7139   -318.19608            0   -7.3480433            0            0            0            0            0            0 
10039000    705.95688    71310.662    537.07761   -309.98973    818.07335    508.08363    1242.2737   -309.98973            0   -7.3437762            0            0            0            0            0            0 
10040000    633.09957    76736.439    509.68319    -284.2441    776.34635    492.10225    1200.6181    -284.2441            0   -6.8245223            0            0            0            0            0            0 
10041000    706.82047    76347.962    557.66324     -275.831    849.42927    573.59826    1360.6123     -275.831            0   -6.8592472            0            0            0            0            0            0 
10042000    634.82334    71049.804    542.56763   -319.70482    826.43572     506.7309    1164.5275   -319.70482            0   -7.3707388            0            0            0            0            0            0 
10043000    631.53589    75221.649     504.9668   -285.59701    769.16237    483.56535    1176.3795   -285.59701            0   -6.9619524            0            0            0            0            0            0 
10044000    686.72734    71860.951    549.37452   -310.80276    836.80393    526.00118     1245.704   -310.80276            0   -7.2875398            0            0            0            0            0            0 
10045000    739.24931    69294.295    541.03086   -306.18989    824.09493    517.90504    1264.9802   -306.18989            0   -7.5574698            0            0            0            0            0            0 
10046000    699.15322     72073.03    534.21076    -304.1432    813.70658    509.56338    1244.4512    -304.1432            0   -7.2660958            0            0            0            0            0            0 
10047000    668.29228    73649.643     519.4413   -299.22377    791.20983    491.98606    1209.8018   -299.22377            0    -7.110551            0            0            0            0            0            0 
10048000    626.36906    72548.184    539.90314   -313.22196    822.37719    509.15523    1171.8793   -313.22196            0   -7.2185066            0            0            0            0            0            0 
10049000    654.65324    75877.264    573.86911   -298.47292    874.11394    575.64102    1300.0751   -298.47292            0    -6.901798            0            0            0            0            0            0 
10050000    740.52301    68828.637    519.88861   -312.36325    791.89118    479.52793    1222.8613   -312.36325            0   -7.6085997            0            0            0            0            0            0 
10051000    770.92496    70045.599    552.28616   -310.45183    841.23894     530.7871    1318.3203   -310.45183            0   -7.4764089            0            0            0            0            0            0 
10052000    678.75948    72560.349    539.49605   -300.65881    821.75712    521.09831     1239.374   -300.65881            0   -7.2172964            0            0            0            0            0            0 
10053000    726.77369    68685.502    548.90828   -327.29086    836.09376     508.8029    1236.8176   -327.29086            0   -7.6244554            0            0            0            0            0            0 
10054000    755.32329    72053.006    549.09891   -301.93966    836.38414    534.44447    1328.1527   -301.93966            0   -7.2681151            0            0            0            0            0            0 
10055000    664.97606    75109.324     559.4088   -294.77149     852.0881    557.31661    1285.7264   -294.77149            0   -6.9723639            0            0            0            0            0            0 
10056000    654.88157    69865.312    521.68746   -326.57488    794.63118     468.0563    1135.3242   -326.57488            0   -7.4957019            0            0            0            0            0            0 
10057000    718.70675    69805.993    532.73011   -311.87593    811.45127    499.57534    1231.2539   -311.87593            0   -7.5020714            0            0            0            0            0            0 
10058000    687.02913    75864.591    584.59912   -287.88903    890.45784    602.56881    1362.7028   -287.88903            0   -6.9029509            0            0            0            0            0            0 
10059000    820.34215    69494.782    578.51003   -317.17894    881.18296    564.00402    1395.4291   -317.17894            0   -7.5356671            0            0            0            0            0            0 
10060000    640.00987    70093.122    538.53172    -335.2957    820.28825    484.99255    1139.2339    -335.2957            0     -7.47134            0            0            0            0            0            0 
10061000    593.35857    72228.291    534.73075    -320.8639    814.49863    493.63473    1118.6641    -320.8639            0   -7.2504768            0            0            0            0            0            0 
10062000    627.04289    73665.739    498.63077   -304.21162    759.51136    455.29974    1128.9565   -304.21162            0   -7.1089974            0            0            0            0            0            0 
10063000    660.39795    73811.169    528.81198   -294.30168     805.4832    511.18152    1222.0736   -294.30168            0   -7.0949905            0            0            0            0            0            0 
10064000    677.63537    76335.237    526.43929   -283.38909    801.86913    518.48003    1272.8719   -283.38909            0   -6.8603906            0            0            0            0            0            0 
10065000    738.75814    70246.093       547.87    -312.0498    834.51226    522.46246     1279.296    -312.0498            0     -7.45507            0            0            0            0            0            0 
10066000     747.3666    74062.221    562.48441   -289.01854    856.77284    567.75429    1375.0011   -289.01854            0   -7.0709403            0            0            0            0            0            0 
10067000    793.53327    71178.515    520.06611   -299.52212    792.16154    492.63942     1316.379   -299.52212            0   -7.3574103            0            0            0            0            0            0 
10068000    670.14004    72694.248    514.19186   -296.61413    783.21393     486.5998    1197.0629   -296.61413            0   -7.2040025            0            0            0            0            0            0 
10069000    637.37559    72141.558    532.78163   -308.02837    811.52975    503.50137     1174.091   -308.02837            0   -7.2591937            0            0            0            0            0            0 
10070000    633.69503    70657.029    563.32444   -325.44405    858.05237    532.60832    1185.6059   -325.44405            0   -7.4117119            0            0            0            0            0            0 
10071000     566.9789    76906.484    519.27522   -296.83148    790.95686    494.12538    1130.0502   -296.83148            0   -6.8094329            0            0            0            0            0            0 
10072000    768.97848    67962.713    581.01131   -327.65986    884.99291    557.33306    1319.5187   -327.65986            0   -7.7055421            0            0            0            0            0            0 
10073000    690.95448    73368.571    513.03882     -288.149    781.45763    493.30863    1232.6336     -288.149            0   -7.1377913            0            0            0            0            0            0 
10074000    609.53225    72037.083    520.30699   -318.08472    792.52846    474.44374    1114.8104   -318.08472            0   -7.2697217            0            0            0            0            0            0 
10075000    603.72068     70664.81    524.36031    -327.7828    798.70245    470.91965    1093.0984    -327.7828            0   -7.4108958            0            0            0            0            0            0 
10076000    665.77057    74062.901    521.60215   -299.33316    794.50123    495.16806    1214.2878   -299.33316            0   -7.0708754            0            0            0            0            0            0 
10077000    797.02221    71511.511    533.83402   -291.22966    813.13274    521.90308    1353.1351   -291.22966            0   -7.3231503            0            0            0            0            0            0 
10078000    707.30894    72866.487    556.19669   -298.97753    847.19542    548.21789    1299.8631   -298.97753            0   -7.1869739            0            0            0            0            0            0 
10079000    682.93127    71238.631     544.2222   -317.83465    828.95595     511.1213    1220.6475   -317.83465            0   -7.3512017            0            0            0            0            0            0 
10080000    604.56732    73051.466     521.3105    -315.2485    794.05699    478.80848    1122.9028    -315.2485            0   -7.1687753            0            0            0            0            0            0 
10081000     813.7159    71600.565    548.56436   -287.53797     835.5699    548.03193     1397.731   -287.53797            0    -7.314042            0            0            0            0            0            0 
10082000    708.76898    69318.128    557.11013    -326.5536    848.58677    522.03316    1238.5517    -326.5536            0   -7.5548715            0            0            0            0            0            0 
10083000    520.17463    77739.348    530.82215   -297.12004    808.54508    511.42504    1101.1723   -297.12004            0   -6.7364797            0            0            0            0            0            0 
10084000    850.85728    68603.217    545.65151   -307.17496    831.13307    523.95812    1375.2473   -307.17496            0   -7.6336004            0            0            0            0            0            0 
10085000    674.65623    74452.791    510.17008   -283.52618    777.08797    493.56179    1226.1154   -283.52618            0    -7.033847            0            0            0            0            0            0 
10086000    702.74177    70585.262    522.94952     -313.027    796.55354    483.52655    1206.9385     -313.027            0   -7.4192478            0            0            0            0            0            0 
10087000     565.7653    72237.372    534.48675   -322.25873    814.12697    491.86824    1087.9065   -322.25873            0   -7.2495653            0            0            0            0            0            0 
10088000    721.68388    71858.634    539.04675   -292.17856    821.07275    528.89419    1285.2077   -292.17856            0   -7.2877748            0            0            0            0            0            0 
10089000    662.05666    73786.934    557.35833   -306.48566    848.96483    542.47917    1254.9228   -306.48566            0   -7.0973208            0            0            0            0            0            0 
10090000    617.84651    75831.845     557.7006   -300.38455    849.48617    549.10162    1232.3964   -300.38455            0   -6.9059317            0            0            0            0            0            0 
10091000    857.19484     70068.43    557.74163   -296.61952    849.54866    552.92914    1428.8761   -296.61952            0   -7.4739728            0            0            0            0            0            0 
10092000    694.46544    73234.814    533.96559   -302.33822    813.33315    510.99493     1252.722   -302.33822            0   -7.1508278            0            0            0            0            0            0 
10093000     678.4103    72250.793    524.02605   -310.35569     798.1933    487.83761    1202.6811   -310.35569            0   -7.2482187            0            0            0            0            0            0 
10094000    840.80434    65993.276    528.21648   -324.79732    804.57614    479.77881    1289.0061   -324.79732            0   -7.9354985            0            0            0            0            0            0 
10095000    640.85449     75126.79    554.63059   -294.39933    844.80995    550.41062     1252.561   -294.39933            0    -6.970743            0            0            0            0            0            0 
10096000     592.3611    73810.317     535.8836   -307.58501    816.25466    508.66965    1146.3154   -307.58501            0   -7.0950724            0            0            0            0            0            0 
10097000    751.42511    70740.693    533.23481   -304.04349    812.22002    508.17653    1283.4071   -304.04349            0   -7.4029462            0            0            0            0            0            0 
10098000    712.79566    72149.433    554.30376   -311.14376    844.31213    533.16837    1283.1901   -311.14376            0   -7.2584014            0            0            0            0            0            0 
10099000    729.22595    76761.264    602.49449   -276.57356    917.71596     641.1424    1457.4994   -276.57356            0   -6.8223152            0            0            0            0            0            0 
10100000    601.23796      73069.2    554.54987    -319.1243      844.687    525.56271    1166.2655    -319.1243            0   -7.1670355            0            0            0            0            0            0 
10101000    656.85701    70404.696    532.01822   -326.52653    810.36693    483.84041    1158.2882   -326.52653            0   -7.4382757            0            0            0            0            0            0 
10102000    627.35113    75013.153     543.6235   -297.47178    828.04402    530.57223     1216.888   -297.47178            0   -6.9813029            0            0            0            0            0            0 
10103000    763.17622    71002.605       548.52   -302.61964    835.50234     532.8827    1323.1518   -302.61964            0   -7.3756385            0            0            0            0            0            0 
10104000    595.79417    74783.878    526.69941   -301.89691    802.26534    500.36844    1150.1691   -301.89691            0   -7.0027064            0            0            0            0            0            0 
10105000    716.06456    69382.196    532.62948   -312.52823    811.29799    498.76976    1223.3327   -312.52823            0   -7.5478952            0            0            0            0            0            0 
10106000    769.78491    74272.308    539.85869   -284.76096    822.30948    537.54852    1371.3683   -284.76096            0   -7.0509394            0            0            0            0            0            0 
10107000    722.98621    72046.322    532.82024   -300.54928    811.58856    511.03928    1270.6966   -300.54928            0   -7.2687894            0            0            0            0            0            0 
10108000    687.38496    70026.166      556.837   -318.92489    848.17074    529.24585    1231.2445   -318.92489            0   -7.4784838            0            0            0            0            0            0 
10109000    626.16079    73923.275    524.32694   -301.54613    798.65162    497.10549    1172.1664   -301.54613            0   -7.0842308            0            0            0            0            0            0 
10110000    677.51314    73949.094    530.38812   -294.82115    807.88397    513.06282    1243.7416   -294.82115            0   -7.0817574            0            0            0            0            0            0 
10111000    813.51729    71468.393    573.89835   -301.36182    874.15848    572.79666    1420.7202   -301.36182            0   -7.3275685            0            0            0            0            0            0 
10112000    654.93195    75340.773    567.17959   -301.19614    863.92451    562.72837    1282.3466   -301.19614            0   -6.9509447            0            0            0            0            0            0 
10113000    710.01439    71650.255    529.70167   -310.43778    806.83838     496.4006    1238.3269   -310.43778            0   -7.3089698            0            0            0            0            0            0 
10114000    739.24512    73563.929    524.72565   -282.64049    799.25893    516.61843    1309.7209   -282.64049            0    -7.118836            0            0            0            0            0            0 
10115000    538.02328    75145.691    513.54616   -306.01779    782.23039    476.21261    1065.8446   -306.01779            0   -6.9689897            0            0            0            0            0            0 
10116000    732.46643    70790.561    534.81448   -306.95137    814.62618    507.67481    1263.8788   -306.95137            0   -7.3977312            0            0            0            0            0            0 
10117000    727.86423    68985.318    548.01462   -319.83635    834.73254    514.89619    1247.1859   -319.83635            0   -7.5913188            0            0            0            0            0            0 
10118000    667.74728    73863.032    569.65512   -307.06949    867.69522    560.62573    1279.9342   -307.06949            0   -7.0900087            0            0            0            0            0            0 
10119000      769.373    67922.306    538.82913   -330.13912    820.74127    490.60214    1252.7255   -330.13912            0   -7.7101261            0            0            0            0            0            0 
10120000    594.38985    74353.587    538.93442   -301.68828    820.90165    519.21336    1163.7524   -301.68828            0   -7.0432318            0            0            0            0            0            0 
10121000    705.70134    72671.458    527.09407   -296.63179     802.8665    506.23471    1254.1643   -296.63179            0   -7.2062617            0            0            0            0            0            0 
10122000    601.95024    72854.363    548.50095   -313.98273    835.47332    521.49059    1161.0664   -313.98273            0     -7.18817            0            0            0            0            0            0 
10123000    798.99431    67863.551    540.94741   -315.64083    823.96782      508.327    1299.1079   -315.64083            0   -7.7168014            0            0            0            0            0            0 
10124000    725.84588    69461.493    574.02321   -324.19373    874.34867    550.15494    1285.4547   -324.19373            0   -7.5392786            0            0            0            0            0            0 
10125000    652.12066    74484.888    537.76396   -292.00115    819.11881    527.11765     1235.507   -292.00115            0   -7.0308161            0            0            0            0            0            0 
10126000    665.41732     70760.62    517.33462   -315.37731    788.00096    472.62365    1159.3151   -315.37731            0   -7.4008614            0            0            0            0            0            0 
10127000    706.51062    71170.605    500.93378   -296.66148    763.01929    466.35781    1199.6807   -296.66148            0   -7.3582281            0            0            0            0            0            0 
10128000    559.13169    79676.291    569.17099   -287.94657    866.95781    579.01123    1228.7206   -287.94657            0   -6.5727149            0            0            0            0            0            0 
10129000    776.51664    71037.613    569.47614   -301.01729    867.42261    566.40532    1370.8849   -301.01729            0   -7.3720037            0            0            0            0            0            0 
10130000    710.41867    71330.204    522.40778   -307.89552    795.72837    487.83285    1226.8657   -307.89552            0   -7.3417643            0            0            0            0            0            0 
10131000    649.41835    74651.102    538.43791   -294.56425    820.14536    525.58111    1232.6092   -294.56425            0   -7.0151616            0            0            0            0            0            0 
10132000    788.54523    70846.059    560.97107   -305.97567    854.46773    548.49206    1363.2305   -305.97567            0   -7.3919361            0            0            0            0            0            0 
10133000    702.35335    75059.371    554.00506   -285.00107    843.85715    558.85607     1327.697   -285.00107            0   -6.9770042            0            0            0            0            0            0 
10134000    789.87355    66270.376    574.23541   -339.16082    874.67189    535.51107    1298.9124   -339.16082            0   -7.9023174            0            0            0            0            0            0 
10135000    760.07097     70895.72    545.33949   -299.68753     830.6578    530.97027    1316.8391   -299.68753            0   -7.3867583            0            0            0            0            0            0 
10136000    651.27198    76866.956    524.52136   -274.55404    798.94775    524.39372    1254.4863   -274.55404            0   -6.8129346            0            0            0            0            0            0 
10137000    792.54191    70154.325    515.46732   -296.64773     785.1567    488.50897    1299.3815   -296.64773            0   -7.4648219            0            0            0            0            0            0 
10138000     676.0562    71135.851    554.62168   -313.81681    844.79638    530.97957    1232.3496   -313.81681            0   -7.3618231            0            0            0            0            0            0 
10139000    763.44966    71808.563    538.77986   -293.48913    820.66622    527.17709     1326.703   -293.48913            0   -7.2928565            0            0            0            0            0            0 
10140000    640.71667    74953.307     525.0224   -294.71658    799.71093    504.99435    1205.3727   -294.71658            0   -6.9868771            0            0            0            0            0            0 
10141000    707.49627    72141.049    550.38008   -300.70355     838.3356    537.63206    1281.9911   -300.70355            0   -7.2592449            0            0            0            0            0            0 
10142000    702.67444    72172.628     539.5393   -316.87234    821.82299    504.95064    1244.5603   -316.87234            0   -7.2560687            0            0            0            0            0            0 
10143000    753.69676    71297.647    539.43048   -301.68857    821.65724    519.96867    1303.6649   -301.68857            0   -7.3451168            0            0            0            0            0            0 
10144000    588.76587    78651.137    523.43978   -282.71063     797.3003    514.58968    1189.9313   -282.71063            0   -6.6583849            0            0            0            0            0            0 
10145000    632.96499    69133.661    509.22008    -329.2727    775.64093    446.36823    1084.5511    -329.2727            0   -7.5750299            0            0            0            0            0            0 
10146000    621.03962    72202.177    550.41687   -319.87405    838.39164    518.51759     1172.469   -319.87405            0   -7.2530991            0            0            0            0            0            0 
10147000    634.77633    73804.318    511.23014   -299.34264    778.70265    479.36001     1162.608   -299.34264            0   -7.0956491            0            0            0            0            0            0 
10148000    658.77321    71749.698    525.90267    -305.3386    801.05175    495.71316    1185.0506    -305.3386            0   -7.2988397            0            0            0            0            0            0 
10149000    562.80212    77111.124    516.34136   -295.54904    786.48803    490.93899    1123.8587   -295.54904            0   -6.7913618            0            0            0            0            0            0 
10150000    716.15551    69067.919    539.31279   -318.50983    821.47797    502.96814    1224.3407   -318.50983            0   -7.5822401            0            0            0            0            0            0 
10151000    785.23575    70036.262    525.78321   -297.92273    800.86979    502.94707    1304.9924   -297.92273            0   -7.4774057            0            0            0            0            0            0 
10152000     697.5491    76364.779    535.23477   -278.56705    815.26635     536.6993    1313.5611   -278.56705            0   -6.8577367            0            0            0            0            0            0 
10153000     793.3537    69346.455    536.47871   -304.20644    817.16112    512.95467    1315.3105   -304.20644            0   -7.5517854            0            0            0            0            0            0 
10154000    623.95847    74147.944    543.89706   -309.26885     828.4607    519.19185    1193.9229   -309.26885            0   -7.0627655            0            0            0            0            0            0 
10155000    715.47731    69212.816    522.21074   -319.00094    795.42823    476.42729    1198.6286   -319.00094            0   -7.5663667            0            0            0            0            0            0 
10156000    580.88686    72478.696    535.99487   -319.33802    816.42413    497.08611    1111.0995   -319.33802            0   -7.2254273            0            0            0            0            0            0 
10157000    776.51469    74015.209    584.90396   -298.48179    890.92217    592.44038    1430.6382   -298.48179            0   -7.0754315            0            0            0            0            0            0 
10158000    795.99965    72906.674    525.86287   -279.76543    800.99114     521.2257    1367.5875   -279.76543            0   -7.1830125            0            0            0            0            0            0 
10159000     744.2119    68531.038    572.11533   -326.70473     871.4426    544.73787    1288.5441   -326.70473            0   -7.6416404            0            0            0            0            0            0 
10160000    654.83885    76373.315     518.1249   -278.90385    789.20471    510.30086    1239.6777   -278.90385            0   -6.8569702            0            0            0            0            0            0 
10161000    682.16527     71286.53    523.68205   -303.56202    797.66932     494.1073    1203.3142   -303.56202            0   -7.3462623            0            0            0            0            0            0 
10162000    722.91575    71360.911    527.93734   -292.69899    804.15095    511.45197     1263.809   -292.69899            0   -7.3386051            0            0            0            0            0            0 
10163000    658.69576    70622.005    541.45936    -323.8938    824.74761    500.85381    1179.2772    -323.8938            0   -7.4153877            0            0            0            0            0            0 
10164000    688.36293    71861.074    554.09372   -307.68346     843.9922    536.30874    1257.7269   -307.68346            0   -7.2875274            0            0            0            0            0            0 
10165000    787.46376    66627.332    516.79707   -327.27809    787.18216    459.90407    1225.0758   -327.27809            0   -7.8599807            0            0            0            0            0            0 
10166000    699.11661     72061.35    523.10375    -301.2243    796.78846    495.56416    1230.2944    -301.2243            0   -7.2672736            0            0            0            0            0            0 
10167000    602.54308    71702.677    517.44366   -326.65896    788.16705    461.50809    1091.5934   -326.65896            0   -7.3036261            0            0            0            0            0            0 
10168000    690.14136    72796.454    536.18273    -309.2401    816.71028    507.47018    1240.1668    -309.2401            0   -7.1938881            0            0            0            0            0            0 
10169000    638.22354    76175.467    582.53166   -295.37521    887.30869    591.93348    1300.9622   -295.37521            0   -6.8747796            0            0            0            0            0            0 
10170000    820.48181    69109.526    570.45118   -307.76495    868.90777    561.14282    1388.0995   -307.76495            0   -7.5776753            0            0            0            0            0            0 
10171000    649.18829    73881.354    542.69391   -292.63327    826.62808    533.99481    1233.4847   -292.63327            0   -7.0882505            0            0            0            0            0            0 
10172000    652.63791    72169.752    519.35081   -301.62236      791.072    489.44964    1176.3653   -301.62236            0   -7.2563579            0            0            0            0            0            0 
10173000    644.27261    71349.742    518.99981   -318.03183    790.53736    472.50553    1142.9116   -318.03183            0   -7.3397539            0            0            0            0            0            0 
10174000    663.23813    77749.585    572.23358   -278.13206    871.62272    593.49066     1345.535   -278.13206            0   -6.7355928            0            0            0            0            0            0 
10175000    647.58195    69494.803     515.5698   -324.89696    785.31279    460.41583    1116.7469   -324.89696            0   -7.5356648            0            0            0            0            0            0 
10176000    610.13022    69881.448    558.36044   -339.40845    850.49123    511.08277    1132.8965   -339.40845            0    -7.493971            0            0            0            0            0            0 
10177000     681.2467    72643.182    552.25663    -305.5183    841.19395    535.67566    1257.4063    -305.5183            0   -7.2090667            0            0            0            0            0            0 
10178000     748.9701    72755.817    548.52237   -285.82427    835.50594    549.68167    1344.3906   -285.82427            0   -7.1979062            0            0            0            0            0            0 
10179000     699.1485    68200.936    533.10741   -340.83864    812.02597    471.18733    1166.5889   -340.83864            0   -7.6786269            0            0            0            0            0            0 
10180000    645.27476    77079.789    543.72531   -292.97325    828.19909    535.22585    1260.5983   -292.97325            0   -6.7941227            0            0            0            0            0            0 
10181000    660.40512    72522.603    525.09769   -310.66743    799.82561    489.15818    1187.6474   -310.66743            0   -7.2210528            0            0            0            0            0            0 
10182000    606.89018    73749.004    521.42573   -305.55623    794.23252    488.67629    1141.4192   -305.55623            0   -7.1009711            0            0            0            0            0            0 
10183000    679.25703    73693.845    532.70111   -294.40365     811.4071    517.00345    1247.0344   -294.40365            0   -7.1062861            0            0            0            0            0            0 
10184000    704.74527    71179.878     523.0354   -312.83865    796.68435    483.84571    1215.4316   -312.83865            0   -7.3572695            0            0            0            0            0            0 
10185000    553.69826    79657.644    503.92226    -286.4618    767.57134    481.10953    1124.3547    -286.4618            0   -6.5742535            0            0            0            0            0            0 
10186000    816.60227    68928.161    562.45211   -307.40137    856.72364    549.32227    1370.2089   -307.40137            0   -7.5976137            0            0            0            0            0            0 
10187000    668.99395    73240.278    535.49435   -298.38658    815.66175    517.27517    1231.8506   -298.38658            0   -7.1502944            0            0            0            0            0            0 
10188000    661.91988    75700.837    566.50532   -291.56974    862.89747    571.32772    1302.0999   -291.56974            0   -6.9178832            0            0            0            0            0            0 
10189000    712.02523    73617.426    525.02747   -287.86324    799.71865    511.85541    1276.3104   -287.86324            0   -7.1136628            0            0            0            0            0            0 
10190000    669.95689    69827.315    510.06097   -323.61247    776.92177    453.30931    1135.5664   -323.61247            0   -7.4997806            0            0            0            0            0            0 
10191000    593.42534    75487.553    520.35365   -305.10383    792.59952     487.4957    1140.8027   -305.10383            0   -6.9374291            0            0            0            0            0            0 
10192000    646.48017    72622.573    542.47441   -305.23353    826.29372     521.0602     1205.764   -305.23353            0   -7.2111125            0            0            0            0            0            0 
10193000    707.83004    71053.107    552.22998   -308.02176    841.15335    533.13159     1266.611   -308.02176            0   -7.3703961            0            0            0            0            0            0 
10194000    817.47043      73468.8    556.29997   -273.65852    847.35274    573.69422    1449.5869   -273.65852            0   -7.1280536            0            0            0            0            0            0 
10195000    700.04051    71902.398    530.96535    -300.2559     808.7632     508.5073    1242.5857    -300.2559            0    -7.283339            0            0            0            0            0            0 
10196000    616.06296    73102.622     479.0199   -298.12168    729.64021    431.51853    1088.3197   -298.12168            0   -7.1637587            0            0            0            0            0            0 
10197000    617.66223    72827.766     570.0832     -327.408    868.34728    540.93928    1196.9696     -327.408            0   -7.1907951            0            0            0            0            0            0 
10198000    669.17976    69701.285    570.42263   -328.19516    868.86429    540.66913    1220.9049   -328.19516            0   -7.5133414            0            0            0            0            0            0 
10199000    656.41112    72958.879    533.36889   -302.00827    812.42426    510.41599    1208.8574   -302.00827            0   -7.1778727            0            0            0            0            0            0 
10200000    571.79796    73582.895    517.01706    -305.9667    787.51725    481.55055    1095.1647    -305.9667            0   -7.1170011            0            0            0            0            0            0 
10201000    672.11062    70014.589    527.16397    -323.2932    802.97296    479.67976    1165.9658    -323.2932            0   -7.4797203            0            0            0            0            0            0 
10202000     853.9914    69383.264    523.63067   -293.88074    797.59106    503.71031    1367.8503   -293.88074            0    -7.547779            0            0            0            0            0            0 
10203000    730.84489    76671.936    545.74183   -274.58344    831.27065    556.68722    1373.9045   -274.58344            0   -6.8302638            0            0            0            0            0            0 
10204000    675.07392     70481.24    514.13283    -318.3334    783.12401    464.79061    1158.6968    -318.3334            0   -7.4301977            0            0            0            0            0            0 
10205000    596.53229     74751.01    532.77982   -300.99926    811.52698    510.52773    1160.8474   -300.99926            0   -7.0057856            0            0            0            0            0            0 
10206000    747.50204    74671.191    581.61148   -294.56855    885.90707    591.33853    1405.3703   -294.56855            0   -7.0132743            0            0            0            0            0            0 
10207000    705.14572    69054.477    553.85789   -327.91084    843.63299    515.72215    1225.8665   -327.91084            0    -7.583716            0            0            0            0            0            0 
10208000    611.50466    73302.268    515.07312   -304.23737    784.55625    480.31887    1134.0408   -304.23737            0   -7.1442475            0            0            0            0            0            0 
10209000    583.55809    72944.848    537.51475   -313.91337     818.7392    504.82583      1125.63   -313.91337            0   -7.1792534            0            0            0            0            0            0 
10210000    597.43892    72767.022    526.05203   -312.76262    801.27926    488.51664    1122.5382   -312.76262            0   -7.1967978            0            0            0            0            0            0 
10211000    673.96276    71029.424    530.59973   -306.04147    808.20629    502.16482     1200.317   -306.04147            0   -7.3728536            0            0            0            0            0            0 
10212000    551.15958    76020.897     537.2827   -304.30761    818.38575    514.07814    1125.1415   -304.30761            0   -6.8887578            0            0            0            0            0            0 
10213000    736.01196    70488.054    513.15744   -298.24352     781.6383    483.39479    1240.0121   -298.24352            0   -7.4294794            0            0            0            0            0            0 
10214000    661.83446    72063.835    513.83909   -308.96201    782.67659    473.71457    1169.2874   -308.96201            0    -7.267023            0            0            0            0            0            0 
10215000    654.97879    71147.811    557.78689   -326.52977    849.61761    523.08784    1202.7055   -326.52977            0   -7.3605855            0            0            0            0            0            0 
10216000    700.79134    71721.989    578.00437   -316.95341    880.41276    563.45935    1296.4812   -316.95341            0   -7.3016596            0            0            0            0            0            0 
10217000    711.22689    74998.103     549.4004   -286.73945    836.84335    550.10391    1328.0228   -286.73945            0   -6.9827039            0            0            0            0            0            0 
10218000    677.72656    71416.871    529.67147   -305.32278    806.79238     501.4696    1207.3501   -305.32278            0   -7.3328548            0            0            0            0            0            0 
10219000    710.21479    71702.977    568.28179   -314.29569    865.60337    551.30767    1293.9895   -314.29569            0   -7.3035956            0            0            0            0            0            0 
10220000    697.10868    75955.144    528.02313   -280.50241    804.28163    523.77922    1295.9859   -280.50241            0   -6.8947212            0            0            0            0            0            0 
10221000    744.17341    70926.675    565.21532   -317.09681    860.93255    543.83574    1313.6034   -317.09681            0   -7.3835344            0            0            0            0            0            0 
10222000    715.23935    68908.644    542.82075   -325.33703    826.82127    501.48424    1220.2725   -325.33703            0   -7.5997656            0            0            0            0            0            0 
10223000     585.0865    75335.797    532.20319    -303.3092    810.64867    507.33947    1150.1713    -303.3092            0   -6.9514038            0            0            0            0            0            0 
10224000    776.15157    70484.731    545.10557   -305.40389     830.3015    524.89761    1322.7407   -305.40389            0   -7.4298297            0            0            0            0            0            0 
10225000    593.19818    78127.814    520.65212    -281.7688    793.05415    511.28535    1187.1837    -281.7688            0   -6.7029847            0            0            0            0            0            0 
10226000     741.1837    70670.244    553.75092   -307.00369    843.47005    536.46636    1300.3696   -307.00369            0    -7.410326            0            0            0            0            0            0 
10227000    724.43606    71861.447    560.55112   -306.31569    853.82807    547.51238    1306.7398   -306.31569            0   -7.2874896            0            0            0            0            0            0 
10228000    690.72273    72950.707    558.60013   -302.47534    850.85633    548.38099    1283.2487   -302.47534            0   -7.1786768            0            0            0            0            0            0 
10229000     704.0227    76111.378    545.74703   -268.54809    831.27856    562.73047    1344.2002   -268.54809            0   -6.8805684            0            0            0            0            0            0 
10230000    672.44905    73402.798    510.58364   -302.90939     777.7179    474.80851    1194.6683   -302.90939            0    -7.134463            0            0            0            0            0            0 
10231000    658.30658    70541.001     533.8621   -321.90776    813.17552    491.26776    1168.5126   -321.90776            0   -7.4239029            0            0            0            0            0            0 
10232000    629.54523    75360.955    519.58441    -292.4047    791.42782    499.02312    1190.9325    -292.4047            0   -6.9490831            0            0            0            0            0            0 
10233000    787.22758     69626.85    552.49849   -307.50831    841.56234    534.05403    1333.4334   -307.50831            0   -7.5213735            0            0            0            0            0            0 
10234000    630.34018    73623.613    546.68359   -300.36225    832.70512    532.34287    1209.1548   -300.36225            0    -7.113065            0            0            0            0            0            0 
10235000    683.31027    71434.481    547.17747   -317.64239     833.4574    515.81501    1227.6867   -317.64239            0   -7.3310471            0            0            0            0            0            0 
10236000    678.60812    69833.809    530.31657   -322.48017    807.77498    485.29481    1176.4263   -322.48017            0   -7.4990832            0            0            0            0            0            0 
10237000    589.90296    75891.519    492.32479   -284.67984    749.90613    465.22629    1118.1309   -284.67984            0   -6.9005016            0            0            0            0            0            0 
10238000    633.36266    69290.028    559.52203   -330.35675    852.26057    521.90381     1161.932   -330.35675            0   -7.5579353            0            0            0            0            0            0 
10239000      776.431    70013.023    543.30571   -307.62954    827.55997    519.93044    1312.7194   -307.62954            0   -7.4798877            0            0            0            0            0            0 
10240000    621.02135    73070.458    562.86426   -315.01453    857.35143     542.3369    1204.1331   -315.01453            0   -7.1669121            0            0            0            0            0            0 
10241000    758.18068     71186.74    516.97988   -307.61562    787.46062      479.845    1266.9773   -307.61562            0   -7.3565603            0            0            0            0            0            0 
10242000    686.63038    70587.869    514.70823   -317.57152    784.00045    466.42893    1173.2817   -317.57152            0   -7.4189737            0            0            0            0            0            0 
10243000    697.90399    72902.762    566.35921   -311.64401    862.67492    551.03091    1293.0508   -311.64401            0   -7.1833979            0            0            0            0            0            0 
10244000    787.28908     70139.02    549.88287   -308.69466    837.57826     528.8836    1334.2061   -308.69466            0   -7.4664509            0            0            0            0            0            0 
10245000    714.63006     73066.38    517.70439   -290.79822    788.56418    497.76597    1259.2745   -290.79822            0    -7.167312            0            0            0            0            0            0 
10246000    630.98455    74779.396    539.53485   -302.63016    821.81621    519.18605    1207.3257   -302.63016            0   -7.0031261            0            0            0            0            0            0 
10247000    794.43095    71131.207    544.04963   -300.79539    828.69309     527.8977    1352.0211   -300.79539            0   -7.3623036            0            0            0            0            0            0 
10248000    746.77858    73620.367    543.64078   -283.80541    828.07034    544.26494    1346.0643   -283.80541            0   -7.1133786            0            0            0            0            0            0 
10249000    620.09525    70277.195    532.93612   -325.75054    811.76506    486.01452     1121.563   -325.75054            0   -7.4517707            0            0            0            0            0            0 
10250000    693.83684    72473.479    511.21762   -297.59452    778.68358    481.08906    1214.4408   -297.59452            0   -7.2259474            0            0            0            0            0            0 
10251000    744.16598    74914.777    548.34008   -283.54742    835.22828    551.68086    1364.7233   -283.54742            0   -6.9904706            0            0            0            0            0            0 
10252000    629.32594     71768.42    547.77476   -324.35068     834.3672    510.01652    1168.7123   -324.35068            0   -7.2969357            0            0            0            0            0            0 
10253000    755.40624    70054.243    519.87398   -304.67893    791.86889    487.18996    1258.9653   -304.67893            0   -7.4754864            0            0            0            0            0            0 
10254000    622.81717    73500.055    521.70289   -310.82086    794.65467    483.83382    1151.4458   -310.82086            0   -7.1250225            0            0            0            0            0            0 
10255000    672.82202    70853.084    550.48677   -318.33729    838.49812    520.16082     1215.401   -318.33729            0   -7.3912033            0            0            0            0            0            0 
10256000    692.58751    74900.372    566.61767   -288.65424     863.0686    574.41435    1330.9589   -288.65424            0    -6.991815            0            0            0            0            0            0 
10257000    654.61532    71106.903    562.18173    -322.5631    856.31179     533.7487    1212.5987    -322.5631            0     -7.36482            0            0            0            0            0            0 
10258000    736.06359    69714.773    533.65405    -308.7631    812.85861    504.09551    1252.4649    -308.7631            0   -7.5118876            0            0            0            0            0            0 
10259000    626.36874    73290.615    524.07431   -310.21073    798.26681    488.05608    1157.5619   -310.21073            0   -7.1453834            0            0            0            0            0            0 
10260000    678.68973    70717.047    515.53262   -324.52739    785.25616    460.72877    1160.6856   -324.52739            0   -7.4054216            0            0            0            0            0            0 
10261000    756.42268    71111.833    536.72731   -294.73347    817.53978    522.80631    1307.2871   -294.73347            0   -7.3643094            0            0            0            0            0            0 
10262000    729.52324    72734.517    573.08576   -300.35203    872.92075    572.56872    1346.4166   -300.35203            0    -7.200014            0            0            0            0            0            0 
10263000    723.37466    75113.329    516.03033   -275.09432    786.01427    510.91995    1303.3413   -275.09432            0   -6.9719922            0            0            0            0            0            0 
10264000    834.07324     69850.73     534.0012   -299.51232    813.38739    513.87507    1363.5465   -299.51232            0   -7.4972666            0            0            0            0            0            0 
10265000    665.83038    72175.138    517.83883   -298.23009    788.76897    490.53888    1191.3922   -298.23009            0   -7.2558164            0            0            0            0            0            0 
10266000    679.83526    72248.494    533.69316   -302.02795    812.91818    510.89023    1227.2124   -302.02795            0   -7.2484493            0            0            0            0            0            0 
10267000    548.73049    73810.866    524.77738   -306.44203    799.33772    492.89568    1083.5798   -306.44203            0   -7.0950197            0            0            0            0            0            0 
10268000    748.69077    69031.176    536.88706    -326.1637    817.78311    491.61941     1245.363    -326.1637            0   -7.5862759            0            0            0            0            0            0 
10269000    591.79666    75143.125    550.71589   -308.46872    838.84711    530.37839    1178.9197   -308.46872            0   -6.9692277            0            0            0            0            0            0 
10270000    755.93193    68517.751    541.84484   -317.12554    825.33478    508.20924    1263.5826   -317.12554            0   -7.6431222            0            0            0            0            0            0 
10271000    623.00327    74444.791    544.47547   -308.47887    829.34173    520.86286    1197.2581   -308.47887            0    -7.034603            0            0            0            0            0            0 
10272000    679.48635    74030.125    542.67415   -292.66111    826.59798    533.93687    1267.5466   -292.66111            0    -7.074006            0            0            0            0            0            0 
10273000    726.80482    68560.922    543.31922   -327.55592    827.58054    500.02463      1226.75   -327.55592            0   -7.6383095            0            0            0            0            0            0 
10274000    631.08494    72941.166    521.68156   -303.86519    794.62218    490.75699    1162.0875   -303.86519            0   -7.1796158            0            0            0            0            0            0 
10275000     729.5954    70763.813    556.09699   -306.29074    847.04357    540.75283    1293.7081   -306.29074            0   -7.4005275            0            0            0            0            0            0 
10276000    687.86456    71317.454    544.21007    -310.1734    828.93747    518.76407    1234.2064    -310.1734            0   -7.3430769            0            0            0            0            0            0 
10277000    664.51779    72659.653    539.97885   -307.77439    822.49251    514.71812    1218.8854   -307.77439            0   -7.2074325            0            0            0            0            0            0 
10278000    645.11543    70871.551    530.93009   -316.50111    808.70949    492.20838    1158.9925   -316.50111            0   -7.3892774            0            0            0            0            0            0 
10279000    686.40993     71563.54    553.79952   -309.04193    843.54407    534.50214     1250.895   -309.04193            0   -7.3178262            0            0            0            0            0            0 
10280000    755.37047    73028.209     532.3365   -285.89321    810.85172    524.95851    1329.4594   -285.89321            0   -7.1710583            0            0            0            0            0            0 
10281000    725.65634     74352.44    523.05378   -275.91861    796.71234    520.79373    1307.6621   -275.91861            0   -7.0433404            0            0            0            0            0            0 
10282000    719.00455    73274.489     539.1238   -290.88563     821.1901    530.30447    1298.6566   -290.88563            0    -7.146956            0            0            0            0            0            0 
10283000    739.22461    71159.164     529.3887   -304.65221    806.36166    501.70945    1268.8645   -304.65221            0   -7.3594111            0            0            0            0            0            0 
10284000    559.52483    78594.169    530.32665   -280.91135    807.79034    526.87899    1168.2149   -280.91135            0   -6.6632112            0            0            0            0            0            0 
10285000    838.96586    70961.117    556.94351   -299.70225    848.33298    548.63074    1416.8724   -299.70225            0   -7.3799507            0            0            0            0            0            0 
10286000    679.85053    72965.365     555.5849   -307.79471    846.26354    538.46883    1261.9148   -307.79471            0   -7.1772346            0            0            0            0            0            0 
10287000    766.77347    71004.678    532.06449   -299.64599     810.4374    510.79141    1304.8087   -299.64599            0   -7.3754231            0            0            0            0            0            0 
10288000     827.9111    68180.754    539.62483   -318.61837    821.95327     503.3349    1326.5653   -318.61837            0   -7.6808999            0            0            0            0            0            0 
10289000    625.76978    76730.872    534.51508    -283.0344    814.17013    531.13573    1231.3978    -283.0344            0   -6.8250175            0            0            0            0            0            0 
10290000     688.7298     70517.99    530.90157   -322.07874    808.66605    486.58732    1194.8995   -322.07874            0   -7.4263255            0            0            0            0            0            0 
10291000    707.77227    71958.814    572.06584   -304.68343    871.36722    566.68378    1309.4522   -304.68343            0   -7.2776289            0            0            0            0            0            0 
10292000     545.0421    74943.586    551.97687   -307.06714    840.76782    533.70069    1129.4183   -307.06714            0   -6.9877834            0            0            0            0            0            0 
10293000    698.56184    71048.197     536.5425   -298.74901    817.25828    518.50928    1242.3347   -298.74901            0   -7.3709054            0            0            0            0            0            0 
10294000    632.37213    74090.661     528.2776   -300.16704    804.66924    504.50219    1187.8032   -300.16704            0   -7.0682261            0            0            0            0            0            0 
10295000    689.83191    72770.218    544.62811   -297.06632    829.57424    532.50792     1264.612   -297.06632            0   -7.1964817            0            0            0            0            0            0 
10296000    850.29085    70927.427    572.69463   -291.34417    872.32499    580.98082    1460.5249   -291.34417            0   -7.3834561            0            0            0            0            0            0 
10297000    740.61668     69899.07    579.70441   -320.10829    883.00224    562.89395    1317.8832   -320.10829            0   -7.4920817            0            0            0            0            0            0 
10298000    647.60026    73250.896    553.36478   -303.88565    842.88187    538.99623    1230.8206   -303.88565            0   -7.1492579            0            0            0            0            0            0 
10299000    717.94098    70290.572    543.59502   -313.38883    828.00064     514.6118    1250.5845   -313.38883            0   -7.4503526            0            0            0            0            0            0 
10300000    730.91886    70756.603      532.954    -301.4132    811.79229    510.37909    1264.6234    -301.4132            0   -7.4012816            0            0            0            0            0            0 
10301000    645.42666    70158.201    515.61473   -322.52661    785.38124    462.85463    1123.2458   -322.52661            0   -7.4644095            0            0            0            0            0            0 
10302000    635.30978    70943.488    534.64842    -330.6391    814.37323    483.73414    1141.0498    -330.6391            0   -7.3817846            0            0            0            0            0            0 
10303000    610.55127    73263.607    515.64229   -313.18533    785.42321    472.23788    1124.5964   -313.18533            0   -7.1480175            0            0            0            0            0            0 
10304000    580.54489    74712.363    537.70798   -306.06724    819.03354     512.9663    1145.5299   -306.06724            0   -7.0094095            0            0            0            0            0            0 
10305000    837.73729    69614.345    545.58692   -297.19945    831.03469    533.83523    1384.3512   -297.19945            0   -7.5227246            0            0            0            0            0            0 
10306000    659.78348    75095.857    549.53502   -298.08389    837.04841    538.96452    1261.5568   -298.08389            0   -6.9736144            0            0            0            0            0            0 
10307000    693.17659    70291.984     555.6081   -311.71304    846.29889    534.58585    1245.1865   -311.71304            0    -7.450203            0            0            0            0            0            0 
10308000    645.80705    72500.602    534.39179   -301.82804    813.98233    512.15429    1194.9964   -301.82804            0   -7.2232441            0            0            0            0            0            0 
10309000    700.10052     71252.34     525.6413   -308.29267    800.65364    492.36096     1219.865   -308.29267            0   -7.3497873            0            0            0            0            0            0 
10310000    627.30568    73293.016    524.26656   -301.37142    798.55964    497.18822    1167.7174   -301.37142            0   -7.1451494            0            0            0            0            0            0 
10311000    652.03605     74313.02    558.52991   -303.81119    850.74937    546.93818    1253.6013   -303.81119            0   -7.0470766            0            0            0            0            0            0 
10312000    702.19017    72747.003    549.40156   -300.00737    836.84512    536.83775    1281.8197   -300.00737            0   -7.1987783            0            0            0            0            0            0 
10313000    874.14816    69053.035    592.79652   -305.03188    902.94407    597.91219    1478.2386   -305.03188            0   -7.5838744            0            0            0            0            0            0 
10314000    626.79131    73093.544    544.69045   -309.98153    829.66919    519.68765    1187.8437   -309.98153            0   -7.1646484            0            0            0            0            0            0 
10315000    735.27792    71730.705    525.74783   -302.73983     800.8159    498.07608    1267.2641   -302.73983            0   -7.3007723            0            0            0            0            0            0 
10316000    776.16621    71325.266    525.62354   -294.84772     800.6266    505.77887    1313.1515   -294.84772            0   -7.3422726            0            0            0            0            0            0 
10317000    715.95683    75279.602    558.15274   -292.29748    850.17486    557.87738     1343.909   -292.29748            0   -6.9565929            0            0            0            0            0            0 
10318000    738.93183    74625.071    526.24839   -282.09102    801.57835    519.48732    1323.6891   -282.09102            0   -7.0176087            0            0            0            0            0            0 
10319000     766.2075    69369.691    545.51574   -313.16034    830.92627    517.76593    1292.9272   -313.16034            0   -7.5492559            0            0            0            0            0            0 
10320000    709.40267    74241.916    529.60242   -297.27892    806.68719    509.40827    1277.5085   -297.27892            0   -7.0538259            0            0            0            0            0            0 
10321000    674.73227    72443.325    527.45775   -314.28824    803.42044     489.1322    1201.9947   -314.28824            0   -7.2289551            0            0            0            0            0            0 
10322000    749.78686    75081.893    536.85769    -284.7748    817.73837    532.96358    1353.9745    -284.7748            0   -6.9749113            0            0            0            0            0            0 
10323000    830.77995    69801.717    553.24093   -295.79811    842.69323    546.89512    1392.6178   -295.79811            0    -7.502531            0            0            0            0            0            0 
10324000    721.71423    72950.704    506.75322   -285.70708    771.88344    486.17635    1254.0162   -285.70708            0   -7.1786771            0            0            0            0            0            0 
10325000    606.45765    74930.675    530.67087   -303.42419    808.31465    504.89046    1167.6195   -303.42419            0   -6.9889874            0            0            0            0            0            0 
10326000    696.60726    74011.598    557.38674   -295.32879     849.0081    553.67931    1305.5855   -295.32879            0   -7.0757767            0            0            0            0            0            0 
10327000    753.50164    73744.754    565.73642   -292.30485    861.72629    569.42144    1379.8061   -292.30485            0   -7.1013803            0            0            0            0            0            0 
10328000    616.86348    74785.406    531.93782   -306.06763    810.24446    504.17682    1176.9704   -306.06763            0   -7.0025633            0            0            0            0            0            0 
10329000    619.73399    71521.147    540.75253   -322.32888    823.67097     501.3421    1147.7634   -322.32888            0   -7.3221637            0            0            0            0            0            0 
10330000    591.37308    76877.302    567.74481   -291.06413    864.78545    573.72132     1236.755   -291.06413            0   -6.8120177            0            0            0            0            0            0 
10331000    738.60354    67985.979    529.73908    -328.0747    806.89536    478.82066    1211.1503    -328.0747            0   -7.7029052            0            0            0            0            0            0 
10332000     692.0324    74804.788    553.11545   -291.00729     842.5021    551.49481    1306.4683   -291.00729            0    -7.000749            0            0            0            0            0            0 
10333000    607.13953    74047.157    524.28505    -303.6203     798.5878     494.9675    1150.6186    -303.6203            0   -7.0723789            0            0            0            0            0            0 
10334000    675.94361    71425.345    530.23722   -298.65854    807.65412    508.99558    1213.1026   -298.65854            0   -7.3319849            0            0            0            0            0            0 
10335000    707.84839    70497.851    552.38135   -313.89527    841.38393    527.48866    1255.2551   -313.89527            0   -7.4284469            0            0            0            0            0            0 
10336000    634.92021    72999.931    557.91305   -315.06663    849.80978    534.74315    1210.6977   -315.06663            0   -7.1738362            0            0            0            0            0            0 
10337000    749.52293    71552.749    568.20146   -306.63862    865.48101     558.8424    1340.9872   -306.63862            0   -7.3189297            0            0            0            0            0            0 
10338000    694.92624    73261.872    514.78313   -295.68014    784.11454     488.4344    1230.9278   -295.68014            0   -7.1481868            0            0            0            0            0            0 
10339000    701.27024    72597.302    524.59369   -297.48055    799.05793    501.57737    1244.0523   -297.48055            0   -7.2136227            0            0            0            0            0            0 
10340000     593.7648    78122.062    552.90561   -292.32248    842.18247    549.85999    1226.3541   -292.32248            0   -6.7034782            0            0            0            0            0            0 
10341000     695.3165    76846.241    518.90352   -273.29991    790.39069    517.09078    1296.3484   -273.29991            0   -6.8147712            0            0            0            0            0            0 
10342000    833.39447    69430.625     547.3269   -301.05296    833.68502    532.63206     1376.506   -301.05296            0   -7.5426305            0            0            0            0            0            0 
10343000    669.27233    75263.888    546.81237   -289.09833    832.90128    543.80295    1278.4275   -289.09833            0   -6.9580453            0            0            0            0            0            0 
10344000    753.14025    71900.647    519.30514   -299.32503    791.00245    491.67741    1281.4182   -299.32503            0   -7.2835164            0            0            0            0            0            0 
10345000    747.03291    72146.622    527.12642   -293.83313    802.91577    509.08264    1295.0991   -293.83313            0   -7.2586842            0            0            0            0            0            0 
10346000    587.11088    74826.534    579.94108   -313.87304    883.36273     569.4897    1210.1852   -313.87304            0   -6.9987145            0            0            0            0            0            0 
10347000     665.2613    71521.475     541.8244   -316.90517    825.30364    508.39847    1202.3108   -316.90517            0   -7.3221301            0            0            0            0            0            0 
10348000    624.94615    72806.485    537.52401   -310.02413    818.75331    508.72918    1172.3019   -310.02413            0   -7.1928969            0            0            0            0            0            0 
10349000     647.1216    72589.789    550.42027   -308.38036    838.39681    530.01646    1215.0902   -308.38036            0   -7.2143693            0            0            0            0            0            0 
10350000    872.47072    70207.216    549.91662   -289.81911    837.62966    547.81055    1441.1335   -289.81911            0   -7.4591983            0            0            0            0            0            0 
10351000    672.08844    73272.639    504.33115   -291.21774    768.19415    476.97641    1195.1743   -291.21774            0   -7.1471364            0            0            0            0            0            0 
10352000    636.42696    71327.766    506.47609   -312.51011    771.46131    458.95121    1120.9895   -312.51011            0   -7.3420152            0            0            0            0            0            0 
10353000    779.57693    70310.977    553.39127   -305.04828    842.92223    537.87395    1337.2626   -305.04828            0   -7.4481904            0            0            0            0            0            0 
[...]
14939000    748.91993    70969.351    517.74909   -304.96454    788.63228    483.66774    1258.8112   -304.96454            0   -7.3790945            0            0            0            0            0            0 
14940000    611.88333    73683.818    504.79695   -290.54805    768.90366    478.35561    1135.8872   -290.54805            0   -7.1072531            0            0            0            0            0            0 
14941000    794.58432    71281.762    534.91646   -294.06731     814.7815    520.71419    1346.7413   -294.06731            0   -7.3467536            0            0            0            0            0            0 
14942000    678.04669     73496.68    551.39975    -294.2832    839.88876    545.60557     1272.386    -294.2832            0   -7.1253497            0            0            0            0            0            0 
14943000    781.88859     69552.16    527.26865   -306.45941    803.13242    496.67301    1289.7793   -306.45941            0   -7.5294505            0            0            0            0            0            0 
14944000    533.47273    76699.154    525.33568   -298.53865    800.18812    501.64947    1098.3806   -298.53865            0   -6.8278399            0            0            0            0            0            0 
14945000    688.55434    71507.463     545.6116    -310.6923    831.07228    520.37998    1238.4478    -310.6923            0   -7.3235649            0            0            0            0            0            0 
14946000    768.22133    70246.455    550.08067   -308.91959    837.87955    528.95995    1315.9816   -308.91959            0   -7.4550316            0            0            0            0            0            0 
14947000    574.76824    77995.559    539.21644    -291.2452    821.33121    530.08601    1183.8764    -291.2452            0   -6.7143509            0            0            0            0            0            0 
14948000    693.57704    74878.049    543.73205   -284.78856    828.20937    543.42081    1300.8205   -284.78856            0   -6.9938994            0            0            0            0            0            0 
14949000    730.45093    69045.282    537.91074   -305.43172    819.34238    513.91066    1249.4416   -305.43172            0    -7.584726            0            0            0            0            0            0 
14950000    665.79893    71559.749    535.43866   -311.22328    815.57692    504.35364    1199.1984   -311.22328            0   -7.3182138            0            0            0            0            0            0 
14951000    697.70972    72294.114    517.97456   -296.23054    788.97571    492.74517    1228.3653   -296.23054            0   -7.2438753            0            0            0            0            0            0 
14952000    689.12735    71453.505    522.79181   -311.86222    796.31332     484.4511    1202.5742   -311.86222            0   -7.3290953            0            0            0            0            0            0 
14953000    617.41345    74714.354    529.75385    -300.8042    806.91784    506.11365    1178.8672    -300.8042            0   -7.0092227            0            0            0            0            0            0 
14954000    801.44463    67843.332    542.94175   -312.03961    827.00558    514.96597    1307.9357   -312.03961            0   -7.7191012            0            0            0            0            0            0 
14955000    750.28618    70920.301    562.58377   -308.52871    856.92418    548.39547    1324.4163   -308.52871            0    -7.384198            0            0            0            0            0            0 
14956000    608.12932    74832.513     506.7863   -301.65592    771.93382     470.2779    1133.9631   -301.65592            0   -6.9981553            0            0            0            0            0            0 
14957000    658.18294    71514.251    520.23908   -322.27515    792.42501    470.14985    1156.6096   -322.27515            0   -7.3228698            0            0            0            0            0            0 
14958000    553.61429     72089.67       533.85   -325.94385    813.15709    487.21323    1069.2578   -325.94385            0   -7.2644187            0            0            0            0            0            0 
14959000    643.78146    70431.532    526.40356   -327.27014    801.81471    474.54457    1135.8186   -327.27014            0   -7.4354417            0            0            0            0            0            0 
14960000    762.74242    73037.894     566.7451   -285.64608     863.2627    577.61662    1390.0767   -285.64608            0   -7.1701074            0            0            0            0            0            0 
14961000    672.88056    77950.962    536.36967   -276.59678    816.99502    540.39824    1305.3523   -276.59678            0   -6.7181922            0            0            0            0            0            0 
14962000    768.22822    69787.233    543.14308   -302.67334    827.31224     524.6389    1306.5225   -302.67334            0   -7.5040881            0            0            0            0            0            0 
14963000    688.18082    71888.363     548.0483   -307.52029    834.78385    527.26356    1248.7647   -307.52029            0    -7.284761            0            0            0            0            0            0 
14964000    671.42472    74274.458    534.52288   -290.69043    814.18201    523.49158    1250.7901   -290.69043            0   -7.0507353            0            0            0            0            0            0 
14965000    688.19042    73345.364    528.15673   -296.07317    804.48513    508.41196    1244.5465   -296.07317            0   -7.1400497            0            0            0            0            0            0 
14966000     676.1818    72220.232     559.2764   -310.22897    851.88642    541.65745    1253.8513   -310.22897            0   -7.2512859            0            0            0            0            0            0 
14967000    623.24666    73831.908    554.67417   -296.36504    844.87632    548.51128       1219.6   -296.36504            0   -7.0929976            0            0            0            0            0            0 
14968000    673.85046    70648.115    525.40402   -308.14862    800.29222     492.1436    1186.4321   -308.14862            0   -7.4126471            0            0            0            0            0            0 
14969000    596.45618    72470.172    526.13164   -318.91061    801.40052    482.48991    1112.8863   -318.91061            0   -7.2262771            0            0            0            0            0            0 
14970000    771.63514    70996.085    506.84198   -289.80056    772.01863    482.21807     1281.173   -289.80056            0   -7.3763158            0            0            0            0            0            0 
14971000    781.73505    68851.648    561.79246   -312.28003    855.71887    543.43884     1328.403   -312.28003            0   -7.6060568            0            0            0            0            0            0 
14972000    651.91011    73794.724    562.51694   -300.80129    856.82239     556.0211      1257.62   -300.80129            0   -7.0965716            0            0            0            0            0            0 
14973000    740.88485    69921.223    550.64854    -318.9671    838.74451    519.77741    1275.2794    -318.9671            0    -7.489708            0            0            0            0            0            0 
14974000    625.95386    75949.912    553.74567   -296.63009    843.46205    546.83196    1240.1707   -296.63009            0   -6.8951962            0            0            0            0            0            0 
14975000    791.20141    70097.924     533.9918   -296.07488    813.37307    517.29819    1326.1484   -296.07488            0   -7.4708281            0            0            0            0            0            0 
14976000    663.45242    70845.048    548.99241   -315.00039    836.22191    521.22152    1206.7021   -315.00039            0   -7.3920416            0            0            0            0            0            0 
14977000    667.67855    73173.931    543.82078   -303.16466    828.34451    525.17984    1237.7042   -303.16466            0   -7.1567775            0            0            0            0            0            0 
14978000    623.76655    71232.366    497.78678   -313.51022     758.2258    444.71559    1092.7161   -313.51022            0   -7.3518482            0            0            0            0            0            0 
14979000    659.67873    73712.219    523.35828   -304.15406    797.17617     493.0221     1202.188   -304.15406            0   -7.1045147            0            0            0            0            0            0 
14980000    787.15108    71366.105     559.7243   -304.17712    852.56866    548.39154    1367.6595   -304.17712            0    -7.338071            0            0            0            0            0            0 
14981000    648.99115    76550.284    573.99176   -298.65409    874.30076    575.64667    1300.1852   -298.65409            0   -6.8411183            0            0            0            0            0            0 
14982000     802.1978    69722.553    522.90539    -295.5501    796.48632    500.93622    1316.6365    -295.5501            0   -7.5110495            0            0            0            0            0            0 
14983000    638.37222    72992.501    534.36555   -309.18999    813.94236    504.75237    1184.3129   -309.18999            0   -7.1745664            0            0            0            0            0            0 
14984000    649.57547     75042.69    566.46665   -307.18428    862.83856    555.65428    1266.5631   -307.18428            0    -6.978555            0            0            0            0            0            0 
14985000    698.86593    73670.243    526.90473   -292.64089    802.57809     509.9372    1260.8022   -292.64089            0   -7.1085627            0            0            0            0            0            0 
14986000    753.79276     69621.31    541.33768   -316.73678    824.56226    507.82548     1273.193   -316.73678            0   -7.5219721            0            0            0            0            0            0 
14987000    692.98667    75392.294    560.71681   -288.52195    854.08044    565.55849    1327.5107   -288.52195            0   -6.9461946            0            0            0            0            0            0 
14988000    730.12838     71750.38    518.41791   -305.61814    789.65102    484.03287    1248.0434   -305.61814            0   -7.2987704            0            0            0            0            0            0 
14989000    642.95764    70938.454    524.47269   -322.68279    798.87362    476.19083     1141.372   -322.68279            0   -7.3823084            0            0            0            0            0            0 
14990000     546.1337    71987.358    527.07574   -323.49648    802.83857     479.3421     1052.707   -323.49648            0   -7.2747432            0            0            0            0            0            0 
14991000    695.47104    70970.618     520.7249   -311.27915    793.16501    481.88586    1201.7218   -311.27915            0   -7.3789628            0            0            0            0            0            0 
14992000    672.16192    70139.784    522.98712   -319.98778    796.61081    476.62303    1164.1888   -319.98778            0   -7.4663695            0            0            0            0            0            0 
14993000     633.5359    76544.864     571.4014   -285.48047    870.35515    584.87468    1292.1087   -285.48047            0   -6.8416027            0            0            0            0            0            0 
14994000    747.88583    70049.002    574.51708   -314.12057    875.10093    560.98036    1325.0152   -314.12057            0   -7.4760458            0            0            0            0            0            0 
14995000    802.98705    68906.602    521.07665   -307.54159     793.7008    486.15921    1293.1067   -307.54159            0   -7.5999909            0            0            0            0            0            0 
14996000    661.85678     73993.74    541.91089   -297.54352    825.43538    527.89186    1242.1166   -297.54352            0   -7.0774845            0            0            0            0            0            0 
14997000    703.27626    70825.948    545.34995   -315.66734    830.67374    515.00639    1241.4372   -315.66734            0   -7.3940351            0            0            0            0            0            0 
14998000    699.43427    70448.425    529.99997   -310.85241    807.29274    496.44033    1215.0517   -310.85241            0   -7.4336587            0            0            0            0            0            0 
14999000    725.06881    74884.346    556.99553   -282.44589    848.41222    565.96632    1357.8222   -282.44589            0   -6.9933113            0            0            0            0            0            0 
15000000    711.24423    73268.625     513.3794   -287.17246    781.97639    494.80393    1254.8023   -287.17246            0   -7.1475279            0            0            0            0            0            0 
Loop time of 1259.99 on 8 procs for 5000000 steps with 512 atoms

Pair  time (%) = 650.358 (51.6162)
Bond  time (%) = 0.451617 (0.0358429)
Neigh time (%) = 34.3836 (2.72888)
Comm  time (%) = 415.361 (32.9655)
Outpt time (%) = 0.266371 (0.0211407)
Other time (%) = 159.168 (12.6325)

Nlocal:    64 ave 71 max 57 min
Histogram: 1 0 2 1 0 1 0 1 1 1
Nghost:    1077 ave 1102 max 1047 min
Histogram: 1 1 0 0 1 1 1 2 0 1
Neighs:    4526.12 ave 5092 max 4134 min
Histogram: 2 1 1 1 0 0 1 0 1 1

Total # of neighbors = 36209
Ave neighs/atom = 70.7207
Ave special neighs/atom = 0
Neighbor list builds = 107448
Dangerous builds = 0

Averages
Group Pressure(MPa) Volume(m3) Temperature(K) PE(J) KE(J) ET(J) ET^2(J) H(J) H^2(J^2) V^2(m6) V*H(m3*J) Hconf(J) Uext*Hconf(J^2) V*Hconf(m3*J) Uext(J)
Block1 70.170384114036480128 7.2424343533728839805e-26 540.57143916808047379 -2.1112245739255790386e-18 5.7206981552867870661e-18 3.6094735813611983978e-18 1.3075014423015687137e-35 8.6836124134544643491e-18 7.5728724829279104298e-35 5.250415239194628134e-51 6.2882813685763741341e-43 2.9629142581676969275e-18 -6.2274835958999401843e-36 2.145162852694311444e-43 -2.1112245739255790386e-18
Block2 70.030574571501418291 7.2428273903830976804e-26 539.7860582619791785 -2.1095380081366493375e-18 5.7123867152527976203e-18 3.6028487071161386532e-18 1.3031510339474004199e-35 8.6672781633474632459e-18 7.5456343350246723527e-35 5.2509909831210388201e-51 6.2771445892095492595e-43 2.9548914480946698626e-18 -6.2045389463966802742e-36 2.1395618074121503952e-43 -2.1095380081366493375e-18
Block3 69.827591586212051311 7.2412624481968980062e-26 539.04221536408590509 -2.1126912922096339674e-18 5.7045148589439359528e-18 3.5918235667343066076e-18 1.295330718109086741e-35 8.6410691518881314081e-18 7.5004338255518760304e-35 5.2484869128590286543e-51 6.2569109052069598028e-43 2.9365542929441923737e-18 -6.1768010033274074565e-36 2.1260959824253700074e-43 -2.1126912922096339674e-18
Block4 69.954122762583679673 7.2441210234189575957e-26 540.46632189568708782 -2.1132581056563875645e-18 5.7195857321310367048e-18 3.6063276264746395106e-18 1.3055667502455650341e-35 8.6659977459897153239e-18 7.5436241207795538734e-35 5.2525360035336585874e-51 6.2766147311457847228e-43 2.9464120138586863228e-18 -6.2012719506988558324e-36 2.1334236536440318044e-43 -2.1132581056563875645e-18
Block5 70.060908758977049615 7.2465949036249197831e-26 540.11596166308095235 -2.1088769017610603588e-18 5.715877979573042843e-18 3.6070010778119728545e-18 1.3059617241149678627e-35 8.6762584991340757509e-18 7.5600241225919693538e-35 5.2561571998306382836e-51 6.2862515618826771245e-43 2.9603805195610436932e-18 -6.216921992770393358e-36 2.144287055096073402e-43 -2.1088769017610603588e-18
Ave_blocks 70.008716358662141488 7.2434480237993514092e-26 539.99639927058274225 -2.1111177763378620534e-18 5.7146126882375204996e-18 3.6034949118996515129e-18 1.3035023337437177008e-35 8.6668431947627700156e-18 7.5445177773751968357e-35 5.2517172677077982585e-51 6.2770406312042693273e-43 2.95223050652525799e-18 -6.2054034978186554211e-36 2.1377062702543875699e-43 -2.1111177763378620534e-18
Stdev_blocks 0.11412706530425720253 1.8190786354341199123e-29 0.5514532782234567998 1.7079551489262945394e-21 5.8358572482435881994e-21 6.208056674827666247e-21 4.317452938384215333e-38 1.4387911032081330978e-20 2.4453532261901222151e-37 2.5706530534872089293e-54 1.1104895204228678172e-45 9.666896097783942484e-21 1.7065323197165652292e-38 7.148285912912410618e-46 1.7079551489262945394e-21






Properties
Group rho(kg/m3) Cp(J/K) Cp_conf(J/K) Cp_id(J/K) Cp2(J/K) kT(1/Pa) aP(1/K) aP2(1/K) Cv(J/K) uJT(K/Pa) sos(m/s) Cv2(J/K) uJT2(K/Pa) sos2(m/s) CvNVT(J/K)
Block1 188.32389076234167646 8.0208330985402015905e-20 -1.3871011278162549589e-21 4.1620284450951963361e-20 4.0233183323135706145e-20 9.4901118152291893496e-09 -0.00026280900098174617575 -0.00024242245570024213968 7.9923395325521709609e-20 -1.0312327238224272568e-06 749.34946785642807754 3.9990738996006916175e-20 -2.0360136778603246172e-06 750.28127796118121751 1.1578862698209326292e-20
Block2 188.31367123687357434 8.3184361545995884811e-20 -9.5137912234139142226e-22 4.1580128135482805137e-20 4.0628749013141410705e-20 9.5152970201974541875e-09 -0.00014256397601823924868 -0.00021109879293828781523 8.3100853745043975577e-20 -9.3769936108200363911e-07 747.42221400287894539 4.044565297406547399e-20 -1.9858190626710089285e-06 748.7359738073949984 1.267568748505939321e-20
Block3 188.35436856147200047 8.3820304010734797163e-20 -8.7275279883864127844e-22 4.1542088816769727374e-20 4.0669336017931088353e-20 9.0899832588506765042e-09 -0.00010810781356510763016 -0.00011705777579998631914 8.3770117367192972191e-20 -9.142468232169298897e-07 764.47038087035923581 4.0610495766616905527e-20 -1.8928707032605763893e-06 764.79493832397656661 1.2989657040281788532e-20
Block4 188.28004275587105099 8.3493743233595608741e-20 -2.5283993436951854314e-21 4.1614910267387406614e-20 3.9086510923692221183e-20 8.8928771061786614746e-09 -0.0003898388257975490389 -0.00033984836368800046746 8.2824656800339397162e-20 -1.0504283312101112845e-06 775.93234157436506848 3.8578020931434736315e-20 -2.1937738378368345962e-06 777.8935861132199534 1.2414937757135470423e-20
Block5 188.21576673697580873 8.0139927657501425651e-20 -2.280918429061688488e-21 4.1596996918361871286e-20 3.9316078489300185055e-20 8.962905575060134226e-09 -0.00037054029063548034936 -0.0003360329912935398726 7.9540353300163078613e-20 -1.0852131314615934533e-06 772.81991322755607143 3.8822977344379489125e-20 -2.1776913898423737597e-06 774.79759909922847783 1.2205589112490157392e-20
Ave_blocks 188.29754801070680514 8.2169333486645948862e-20 -1.6041101643506325039e-21 4.1590881717790754754e-20 3.9986771553440118677e-20 9.190234955103224141e-09 -0.00025477198139962448043 -0.00024929207588401133908 8.1831875307652224223e-20 -1.0037640741586132106e-06 761.99886350631754794 3.9689577202500701819e-20 -2.0572337342942234041e-06 763.30067506100022001 1.2372946818635228675e-20
Stdev_blocks 0.047280195970216327972 1.6415885988726832766e-21 6.812362652506553943e-22 2.8198135802193023842e-23 6.6318119016666526214e-22 2.6296091624105084902e-10 0.00011472659862557211218 8.3326173954256674238e-05 1.7462000229733198515e-21 6.6247887613292020782e-08 11.745903518048976366 8.3630050314355012931e-22 1.1464623739509364034e-07 12.074770072075189375 4.758833553771651685e-22






